/*--------------------------------*- C++ -*----------------------------------*\
  =========                 |
  \\      /  F ield         | OpenFOAM: The Open Source CFD Toolbox
   \\    /   O peration     | Website:  https://openfoam.org
    \\  /    A nd           | Version:  8
     \\/     M anipulation  |
\*---------------------------------------------------------------------------*/
FoamFile
{
    version     2.0;
    format      ascii;
    class       volScalarField;
    location    "8.5";
    object      p;
}
// * * * * * * * * * * * * * * * * * * * * * * * * * * * * * * * * * * * * * //

dimensions      [0 2 -2 0 0 0 0];

internalField   nonuniform List<scalar> 
400
(
1.00808e-08
-0.000181021
-0.000387225
-0.000632858
-0.00100751
-0.00151939
-0.00215635
-0.00285387
-0.00350937
-0.00399965
-0.00419438
-0.00396281
-0.00318654
-0.00179536
0.000208809
0.00270971
0.00536419
0.00754653
0.00859779
0.00842902
0.000174926
1.78414e-05
-0.000256759
-0.000579809
-0.00101516
-0.00160181
-0.0023232
-0.00310876
-0.00385058
-0.00442335
-0.00470102
-0.00456332
-0.00390329
-0.0026859
-0.000840376
0.00151385
0.00407225
0.00629321
0.00753408
0.00762656
0.000498783
0.000220769
-0.000161318
-0.000654045
-0.00129637
-0.00209547
-0.00301317
-0.00396613
-0.00484173
-0.00551864
-0.00588577
-0.00585181
-0.00533464
-0.00422956
-0.00255525
-0.000386608
0.00206363
0.00435771
0.00584416
0.00619346
0.000589483
0.000226259
-0.000322816
-0.00104069
-0.00193224
-0.0029691
-0.00408718
-0.0051922
-0.00617413
-0.00692597
-0.00735998
-0.00740702
-0.00699565
-0.00606853
-0.00462631
-0.0027012
-0.00041501
0.00190473
0.0035933
0.00418596
0.000267152
-0.000154261
-0.000841395
-0.0017499
-0.0028462
-0.00406978
-0.005336
-0.00654345
-0.00758792
-0.00837887
-0.00885067
-0.00895573
-0.00864525
-0.00789718
-0.00671302
-0.0050819
-0.0030401
-0.000793736
0.000989431
0.00179115
-0.000460319
-0.000902763
-0.00166738
-0.00269127
-0.00391265
-0.00524594
-0.00659055
-0.0078403
-0.00889723
-0.00968514
-0.0101565
-0.0102853
-0.010054
-0.00947308
-0.00854693
-0.0072365
-0.00551223
-0.00344587
-0.00169538
-0.000738685
-0.00143703
-0.00187016
-0.00265778
-0.00372613
-0.00499622
-0.00636596
-0.00772397
-0.00896139
-0.00998572
-0.0107325
-0.0111696
-0.0112925
-0.0111146
-0.0106708
-0.00997226
-0.00897127
-0.00760403
-0.00580242
-0.00420409
-0.00315056
-0.00247113
-0.00287866
-0.0036536
-0.0047153
-0.00597707
-0.00732863
-0.00865345
-0.00984202
-0.0108064
-0.0114916
-0.0118785
-0.0119799
-0.0118322
-0.0114858
-0.0109601
-0.0102154
-0.00919519
-0.00769955
-0.00633827
-0.00524292
-0.00341491
-0.0037818
-0.00452514
-0.00554844
-0.00676623
-0.0080672
-0.00933492
-0.0104613
-0.0113618
-0.0119875
-0.0123281
-0.0124022
-0.0122735
-0.0119852
-0.0115674
-0.0109981
-0.0102706
-0.00907094
-0.00798246
-0.00688409
-0.00417897
-0.00448623
-0.00518608
-0.00615221
-0.00730673
-0.00854257
-0.00974798
-0.010818
-0.0116698
-0.0122559
-0.0125696
-0.012637
-0.012514
-0.0122419
-0.0118735
-0.0113886
-0.0108871
-0.00992705
-0.00909886
-0.00800571
-0.00471004
-0.00496328
-0.00559781
-0.00649206
-0.00757127
-0.00873767
-0.0098863
-0.010915
-0.0117406
-0.0123123
-0.012619
-0.012689
-0.0125653
-0.0122831
-0.0119286
-0.0114393
-0.0111159
-0.0103101
-0.00969459
-0.00858055
-0.00500422
-0.00521153
-0.00576841
-0.00657706
-0.00757141
-0.00866608
-0.00976285
-0.0107613
-0.0115759
-0.0121503
-0.0124645
-0.0125399
-0.0124083
-0.0121143
-0.0117261
-0.0112258
-0.0109685
-0.0102395
-0.0098049
-0.00860012
-0.00510149
-0.00526008
-0.00572262
-0.00642927
-0.00732986
-0.00835113
-0.00939982
-0.0103752
-0.0111875
-0.0117737
-0.0121038
-0.0121794
-0.0120396
-0.0117299
-0.0113014
-0.010771
-0.0104771
-0.00971607
-0.00952358
-0.00803861
-0.00505809
-0.00515661
-0.00549388
-0.00607158
-0.00686575
-0.00781309
-0.00882062
-0.00978319
-0.0106041
-0.0112108
-0.0115626
-0.0116476
-0.011504
-0.0111745
-0.0107004
-0.0101227
-0.00973966
-0.00875121
-0.00896173
-0.00678095
-0.00493347
-0.00494967
-0.00511498
-0.00552777
-0.00620168
-0.00707903
-0.00805897
-0.00902572
-0.00987183
-0.0105141
-0.0109006
-0.0110088
-0.0108702
-0.0105186
-0.00999391
-0.00935214
-0.00882501
-0.00759509
-0.00794165
-0.00462488
-0.00478815
-0.00466665
-0.00460473
-0.00481907
-0.00536715
-0.00618862
-0.00716344
-0.00815802
-0.009051
-0.00974768
-0.0101863
-0.0103365
-0.0102086
-0.00984233
-0.00927623
-0.00856275
-0.00782923
-0.00633336
-0.00621338
-0.00134744
-0.00469128
-0.0042818
-0.00395912
-0.00396137
-0.00439972
-0.00519615
-0.00619854
-0.00725021
-0.00821469
-0.00898648
-0.00949556
-0.00970578
-0.00961173
-0.00925024
-0.00865995
-0.00786597
-0.00683459
-0.00479385
-0.00312844
0.00476121
-0.00465125
-0.00381414
-0.00317843
-0.00297971
-0.00335258
-0.00416951
-0.0052362
-0.00637283
-0.00742978
-0.0082932
-0.00888721
-0.00917118
-0.00913354
-0.00878273
-0.00814129
-0.00723092
-0.00577167
-0.00233173
0.00326697
0.0182114
-0.00513531
-0.00333668
-0.00235484
-0.00202704
-0.0024064
-0.00329347
-0.00445684
-0.00569791
-0.00685689
-0.00781578
-0.00849732
-0.00886051
-0.00889518
-0.0086195
-0.00808615
-0.0072482
-0.00453828
0.00241987
0.0155696
0.0420564
-0.00823487
-0.00207747
-0.000449461
-0.000496531
-0.00114839
-0.00221293
-0.00354014
-0.00493483
-0.00622878
-0.00730347
-0.00808348
-0.00852742
-0.00861475
-0.00829849
-0.00730381
-0.00468946
0.000845419
0.0122881
0.0324401
0.0659032
)
;

boundaryField
{
    movingWall
    {
        type            zeroGradient;
    }
    fixedWalls
    {
        type            zeroGradient;
    }
    frontAndBack
    {
        type            empty;
    }
}


// ************************************************************************* //
