/*--------------------------------*- C++ -*----------------------------------*\
  =========                 |
  \\      /  F ield         | OpenFOAM: The Open Source CFD Toolbox
   \\    /   O peration     | Website:  https://openfoam.org
    \\  /    A nd           | Version:  8
     \\/     M anipulation  |
\*---------------------------------------------------------------------------*/
FoamFile
{
    version     2.0;
    format      ascii;
    class       surfaceScalarField;
    location    "8.5";
    object      phi;
}
// * * * * * * * * * * * * * * * * * * * * * * * * * * * * * * * * * * * * * //

dimensions      [0 3 -1 0 0 0 0];

internalField   nonuniform List<scalar> 
760
(
2.50279e-07
-2.5028e-07
2.50879e-07
-5.99872e-10
-3.80691e-08
2.88948e-07
-5.92064e-07
5.53995e-07
-1.30635e-06
7.14287e-07
-2.10639e-06
8.00041e-07
-2.93032e-06
8.2393e-07
-3.72674e-06
7.96417e-07
-4.45321e-06
7.26466e-07
-5.07438e-06
6.21178e-07
-5.55989e-06
4.85504e-07
-5.88056e-06
3.20667e-07
-6.00354e-06
1.22985e-07
-5.8897e-06
-1.13839e-07
-5.49455e-06
-3.95155e-07
-4.7787e-06
-7.15844e-07
-3.72306e-06
-1.05564e-06
-2.36574e-06
-1.35733e-06
-9.15989e-07
-1.44975e-06
-9.15989e-07
-2.63712e-07
1.34317e-08
-8.27383e-07
5.63072e-07
-1.58463e-06
1.0462e-06
-2.41465e-06
1.38402e-06
-3.28982e-06
1.58946e-06
-4.16534e-06
1.67556e-06
-4.99644e-06
1.65503e-06
-5.74309e-06
1.54306e-06
-6.37058e-06
1.35395e-06
-6.84946e-06
1.10006e-06
-7.15476e-06
7.90811e-07
-7.26501e-06
4.30909e-07
-7.14269e-06
6.65012e-10
-6.80257e-06
-4.53952e-07
-6.22075e-06
-9.76977e-07
-5.38063e-06
-1.55596e-06
-4.26141e-06
-2.17486e-06
-2.87351e-06
-2.74523e-06
-1.3269e-06
-2.99636e-06
-2.24289e-06
-6.76806e-07
6.90238e-07
-1.50726e-06
1.39352e-06
-2.35028e-06
1.88922e-06
-3.19242e-06
2.22615e-06
-4.00854e-06
2.40558e-06
-4.76936e-06
2.43637e-06
-5.4469e-06
2.33257e-06
-6.01599e-06
2.11215e-06
-6.45631e-06
1.79428e-06
-6.75319e-06
1.39694e-06
-6.89678e-06
9.34392e-07
-6.87896e-06
4.1309e-07
-6.71092e-06
-1.6737e-07
-6.37314e-06
-7.91732e-07
-5.86139e-06
-1.48872e-06
-5.14216e-06
-2.27519e-06
-4.17632e-06
-3.1407e-06
-2.93758e-06
-3.98396e-06
-1.46527e-06
-4.46867e-06
-3.70816e-06
-8.05014e-07
1.49525e-06
-1.69199e-06
2.2805e-06
-2.52988e-06
2.72711e-06
-3.30966e-06
3.00593e-06
-4.0201e-06
3.11602e-06
-4.64536e-06
3.06164e-06
-5.17029e-06
2.8575e-06
-5.58301e-06
2.52487e-06
-5.87646e-06
2.08773e-06
-6.04871e-06
1.5692e-06
-6.10214e-06
9.87818e-07
-6.04256e-06
3.53508e-07
-5.88213e-06
-3.27792e-07
-5.61443e-06
-1.05944e-06
-5.22227e-06
-1.88089e-06
-4.66788e-06
-2.82958e-06
-3.89484e-06
-3.91375e-06
-2.83786e-06
-5.04094e-06
-1.47938e-06
-5.82715e-06
-5.18754e-06
-7.60631e-07
2.25588e-06
-1.59619e-06
3.11606e-06
-2.36401e-06
3.49493e-06
-3.04955e-06
3.69147e-06
-3.6452e-06
3.71167e-06
-4.14287e-06
3.55932e-06
-4.5361e-06
3.25073e-06
-4.82193e-06
2.8107e-06
-5.00213e-06
2.26793e-06
-5.08343e-06
1.65049e-06
-5.07708e-06
9.81478e-07
-4.99839e-06
2.74812e-07
-4.86271e-06
-4.63466e-07
-4.67102e-06
-1.25113e-06
-4.4077e-06
-2.14421e-06
-4.03151e-06
-3.20577e-06
-3.47033e-06
-4.47494e-06
-2.62087e-06
-5.8904e-06
-1.41749e-06
-7.03053e-06
-6.60503e-06
-6.28416e-07
2.8843e-06
-1.35433e-06
3.84197e-06
-2.01554e-06
4.15615e-06
-2.59065e-06
4.26658e-06
-3.07231e-06
4.19333e-06
-3.45573e-06
3.94274e-06
-3.73877e-06
3.53376e-06
-3.92288e-06
2.99482e-06
-4.01422e-06
2.35926e-06
-4.02445e-06
1.66072e-06
-3.97131e-06
9.28333e-07
-3.87851e-06
1.82017e-07
-3.76619e-06
-5.7579e-07
-3.64302e-06
-1.3743e-06
-3.49885e-06
-2.28838e-06
-3.29533e-06
-3.40929e-06
-2.95073e-06
-4.81953e-06
-2.32548e-06
-6.51565e-06
-1.30914e-06
-8.04687e-06
-7.91417e-06
-4.57792e-07
3.34209e-06
-1.04498e-06
4.42916e-06
-1.58229e-06
4.69345e-06
-2.04178e-06
4.72607e-06
-2.4156e-06
4.56715e-06
-2.70025e-06
4.22739e-06
-2.89527e-06
3.72879e-06
-3.0036e-06
3.10314e-06
-3.03249e-06
2.38815e-06
-2.99506e-06
1.6233e-06
-2.91171e-06
8.44983e-07
-2.81149e-06
8.17956e-08
-2.71591e-06
-6.71374e-07
-2.63946e-06
-1.45074e-06
-2.58471e-06
-2.34313e-06
-2.52711e-06
-3.46689e-06
-2.38655e-06
-4.9601e-06
-1.98755e-06
-6.91465e-06
-1.17404e-06
-8.86038e-06
-9.08821e-06
-2.75949e-07
3.61804e-06
-7.1245e-07
4.86566e-06
-1.12092e-06
5.10192e-06
-1.46653e-06
5.07168e-06
-1.74127e-06
4.84189e-06
-1.94263e-06
4.42875e-06
-2.07126e-06
3.85742e-06
-2.13066e-06
3.16254e-06
-2.12763e-06
2.38512e-06
-2.07393e-06
1.56959e-06
-1.98744e-06
7.58493e-07
-1.89558e-06
-1.00677e-08
-1.81275e-06
-7.54201e-07
-1.75696e-06
-1.50653e-06
-1.74902e-06
-2.35107e-06
-1.79222e-06
-3.42369e-06
-1.82493e-06
-4.92738e-06
-1.63874e-06
-7.10084e-06
-1.03005e-06
-9.46907e-06
-1.01183e-05
-1.02812e-07
3.72085e-06
-3.82256e-07
5.14511e-06
-6.63607e-07
5.38327e-06
-9.00018e-07
5.30809e-06
-1.08364e-06
5.02551e-06
-1.2135e-06
4.5586e-06
-1.29198e-06
3.9359e-06
-1.32377e-06
3.19433e-06
-1.31539e-06
2.37674e-06
-1.27503e-06
1.52923e-06
-1.21468e-06
6.9814e-07
-1.14591e-06
-7.88352e-08
-1.0885e-06
-8.1161e-07
-1.04306e-06
-1.55197e-06
-1.04755e-06
-2.34658e-06
-1.14062e-06
-3.33062e-06
-1.30273e-06
-4.76528e-06
-1.30339e-06
-7.10018e-06
-8.89914e-07
-9.88254e-06
-1.10082e-05
4.87817e-08
3.67207e-06
-7.40579e-08
5.26795e-06
-2.29598e-07
5.53881e-06
-3.6151e-07
5.44e-06
-4.58762e-07
5.12276e-06
-5.22152e-07
4.62199e-06
-5.5655e-07
3.9703e-06
-5.68932e-07
3.20671e-06
-5.67415e-07
2.37523e-06
-5.59608e-07
1.52143e-06
-5.48083e-07
6.86615e-07
-5.25563e-07
-1.01355e-07
-4.97611e-07
-8.39562e-07
-4.72822e-07
-1.57676e-06
-4.90013e-07
-2.32939e-06
-5.95862e-07
-3.22477e-06
-8.41558e-07
-4.51958e-06
-9.97644e-07
-6.94409e-06
-7.61062e-07
-1.01191e-05
-1.17692e-05
1.7231e-07
3.49976e-06
2.01213e-07
5.23904e-06
1.67777e-07
5.57225e-06
1.369e-07
5.47088e-06
1.24823e-07
5.13484e-06
1.29431e-07
4.61739e-06
1.43014e-07
3.95672e-06
1.55818e-07
3.19391e-06
1.58062e-07
2.37298e-06
1.42147e-07
1.53734e-06
1.08503e-07
7.20259e-07
7.45789e-08
-6.74304e-08
5.4857e-08
-8.1984e-07
2.35952e-08
-1.54549e-06
-1.81472e-08
-2.28765e-06
-1.62571e-07
-3.08035e-06
-4.44348e-07
-4.2378e-06
-7.25628e-07
-6.66281e-06
-6.44669e-07
-1.02001e-05
-1.24139e-05
2.71985e-07
3.22778e-06
4.31534e-07
5.07949e-06
5.16095e-07
5.48769e-06
5.87542e-07
5.39943e-06
6.64341e-07
5.05804e-06
7.42559e-07
4.53917e-06
8.11169e-07
3.88811e-06
8.5799e-07
3.14709e-06
8.72732e-07
2.35824e-06
8.49667e-07
1.56041e-06
7.89955e-07
7.79971e-07
7.03906e-07
1.86193e-08
6.13788e-07
-7.29722e-07
5.11502e-07
-1.44321e-06
3.80684e-07
-2.15683e-06
1.98064e-07
-2.89773e-06
-8.75471e-08
-3.95219e-06
-4.79509e-07
-6.27085e-06
-5.3742e-07
-1.01422e-05
-1.29513e-05
3.44607e-07
2.88317e-06
6.1138e-07
4.81272e-06
8.04797e-07
5.29427e-06
9.77269e-07
5.22696e-06
1.14532e-06
4.88999e-06
1.30227e-06
4.38221e-06
1.43388e-06
3.7565e-06
1.52585e-06
3.05512e-06
1.56769e-06
2.3164e-06
1.55534e-06
1.57276e-06
1.491e-06
8.44311e-07
1.37445e-06
1.35165e-07
1.21278e-06
-5.68056e-07
1.01835e-06
-1.24878e-06
7.88154e-07
-1.92663e-06
5.22985e-07
-2.63256e-06
1.98947e-07
-3.62815e-06
-2.49802e-07
-5.8221e-06
-4.35171e-07
-9.9568e-06
-1.33865e-05
3.82924e-07
2.50024e-06
7.2916e-07
4.46648e-06
1.0217e-06
5.00173e-06
1.29607e-06
4.95259e-06
1.56031e-06
4.62575e-06
1.80262e-06
4.1399e-06
2.00522e-06
3.5539e-06
2.15194e-06
2.9084e-06
2.23167e-06
2.23667e-06
2.23953e-06
1.5649e-06
2.17466e-06
9.09181e-07
2.03528e-06
2.74544e-07
1.8223e-06
-3.55069e-07
1.54936e-06
-9.75844e-07
1.22102e-06
-1.59829e-06
8.46388e-07
-2.25793e-06
4.40914e-07
-3.22268e-06
-5.30699e-08
-5.32812e-06
-3.21335e-07
-9.68854e-06
-1.37078e-05
3.72154e-07
2.12809e-06
7.65799e-07
4.07284e-06
1.14989e-06
4.61764e-06
1.53123e-06
4.57125e-06
1.90057e-06
4.2564e-06
2.2373e-06
3.80317e-06
2.51968e-06
3.27152e-06
2.7301e-06
2.69798e-06
2.85699e-06
2.10978e-06
2.8946e-06
1.5273e-06
2.84015e-06
9.63622e-07
2.68982e-06
4.24881e-07
2.43897e-06
-1.0422e-07
2.10414e-06
-6.41017e-07
1.68895e-06
-1.1831e-06
1.2079e-06
-1.77688e-06
6.99515e-07
-2.71429e-06
2.18202e-07
-4.8468e-06
-1.16001e-07
-9.35434e-06
-1.38238e-05
2.78172e-07
1.84992e-06
6.94984e-07
3.65603e-06
1.17047e-06
4.14215e-06
1.67152e-06
4.07019e-06
2.15995e-06
3.76798e-06
2.60271e-06
3.36042e-06
2.97437e-06
2.89986e-06
3.25693e-06
2.41543e-06
3.4392e-06
1.92751e-06
3.5156e-06
1.45089e-06
3.48381e-06
9.95416e-07
3.34207e-06
5.66624e-07
3.08063e-06
1.57217e-07
2.7003e-06
-2.60691e-07
2.21472e-06
-6.97511e-07
1.63959e-06
-1.20176e-06
1.04446e-06
-2.11916e-06
5.76718e-07
-4.37906e-06
1.60418e-07
-8.93804e-06
-1.36634e-05
4.64827e-08
1.80344e-06
4.81808e-07
3.2207e-06
1.06852e-06
3.55544e-06
1.71482e-06
3.4239e-06
2.34083e-06
3.14196e-06
2.90213e-06
2.79912e-06
3.3722e-06
2.42979e-06
3.73452e-06
2.0531e-06
3.97982e-06
1.68221e-06
4.10412e-06
1.32659e-06
4.10676e-06
9.92778e-07
3.9887e-06
6.84684e-07
3.74424e-06
4.01675e-07
3.35937e-06
1.24179e-07
2.84264e-06
-1.80785e-07
2.22589e-06
-5.85002e-07
1.62045e-06
-1.51373e-06
1.15695e-06
-3.91556e-06
5.51517e-07
-8.3326e-06
-1.31119e-05
-4.22145e-07
2.22558e-06
7.8904e-08
2.71965e-06
8.61462e-07
2.77289e-06
1.69428e-06
2.59108e-06
2.47903e-06
2.35721e-06
3.17189e-06
2.10626e-06
3.7512e-06
1.85048e-06
4.20495e-06
1.59935e-06
4.52804e-06
1.35912e-06
4.72026e-06
1.13437e-06
4.7845e-06
9.28537e-07
4.72536e-06
7.43832e-07
4.54635e-06
5.80685e-07
4.23635e-06
4.34175e-07
3.7945e-06
2.61069e-07
3.3328e-06
-1.2331e-07
2.91939e-06
-1.10031e-06
2.38319e-06
-3.37937e-06
1.32518e-06
-7.27459e-06
-1.17867e-05
-9.37325e-07
3.16291e-06
-2.17664e-07
1.99999e-06
9.19959e-07
1.63526e-06
2.01304e-06
1.498e-06
2.99934e-06
1.37091e-06
3.86822e-06
1.23738e-06
4.60917e-06
1.10953e-06
5.21818e-06
9.9034e-07
5.69755e-06
8.7975e-07
6.05373e-06
7.78196e-07
6.29597e-06
6.8629e-07
6.43588e-06
6.03926e-07
6.48831e-06
5.28257e-07
6.47892e-06
4.43562e-07
6.45335e-06
2.86636e-07
6.406e-06
-7.59619e-08
6.31027e-06
-1.00458e-06
5.46758e-06
-2.53668e-06
3.24473e-06
-5.05173e-06
-8.54198e-06
3.16291e-06
5.1629e-06
6.79816e-06
8.29616e-06
9.66707e-06
1.09044e-05
1.2014e-05
1.30043e-05
1.38841e-05
1.46623e-05
1.53486e-05
1.59525e-05
1.64807e-05
1.69243e-05
1.72109e-05
1.7135e-05
1.61304e-05
1.35937e-05
8.54198e-06
)
;

boundaryField
{
    movingWall
    {
        type            calculated;
        value           uniform 0;
    }
    fixedWalls
    {
        type            calculated;
        value           uniform 0;
    }
    frontAndBack
    {
        type            empty;
        value           nonuniform List<scalar> 0();
    }
}


// ************************************************************************* //
