/*--------------------------------*- C++ -*----------------------------------*\
  =========                 |
  \\      /  F ield         | OpenFOAM: The Open Source CFD Toolbox
   \\    /   O peration     | Website:  https://openfoam.org
    \\  /    A nd           | Version:  8
     \\/     M anipulation  |
\*---------------------------------------------------------------------------*/
FoamFile
{
    version     2.0;
    format      ascii;
    class       volVectorField;
    location    "8.5";
    object      U;
}
// * * * * * * * * * * * * * * * * * * * * * * * * * * * * * * * * * * * * * //

dimensions      [0 1 -1 0 0 0 0];

internalField   nonuniform List<vector> 
400
(
(0.00306995 -0.00402534 0)
(0.00620722 -0.00370641 0)
(0.00398291 -0.00101797 0)
(-0.00526971 0.00333375 0)
(-0.0183446 0.00617317 0)
(-0.0340247 0.00790612 0)
(-0.0506421 0.0087546 0)
(-0.0671054 0.0089102 0)
(-0.0825157 0.0085355 0)
(-0.0961314 0.00774674 0)
(-0.107321 0.00661208 0)
(-0.115483 0.00513734 0)
(-0.119977 0.00324844 0)
(-0.120158 0.0007811 0)
(-0.115035 -0.00253741 0)
(-0.103565 -0.00647449 0)
(-0.0853323 -0.0107035 0)
(-0.0609494 -0.0143849 0)
(-0.0330403 -0.015121 0)
(-0.0076387 -0.00715511 0)
(-0.000705155 -0.00575819 0)
(-0.0101611 0.00377699 0)
(-0.0234895 0.0133357 0)
(-0.0394805 0.0197329 0)
(-0.0569066 0.02353 0)
(-0.0747727 0.0253098 0)
(-0.0921192 0.0253749 0)
(-0.10811 0.0239892 0)
(-0.122007 0.0213843 0)
(-0.133189 0.0177544 0)
(-0.141135 0.0132407 0)
(-0.145365 0.00789524 0)
(-0.145348 0.00162622 0)
(-0.140573 -0.00581576 0)
(-0.131171 -0.0142074 0)
(-0.116741 -0.0234836 0)
(-0.0968059 -0.0332361 0)
(-0.0715194 -0.0418807 0)
(-0.0426551 -0.0447715 0)
(-0.0138255 -0.0305445 0)
(-0.00622579 0.00660655 0)
(-0.0218633 0.0197915 0)
(-0.0384009 0.0296139 0)
(-0.0554323 0.0364406 0)
(-0.0722463 0.0403477 0)
(-0.0882377 0.0415599 0)
(-0.102805 0.0403492 0)
(-0.115405 0.0370302 0)
(-0.125579 0.031922 0)
(-0.132985 0.0253151 0)
(-0.137404 0.0174358 0)
(-0.138715 0.00840324 0)
(-0.136776 -0.00180704 0)
(-0.131593 -0.0131891 0)
(-0.123102 -0.0257038 0)
(-0.110728 -0.0395889 0)
(-0.0936966 -0.054527 0)
(-0.0714709 -0.0685204 0)
(-0.0449353 -0.0754121 0)
(-0.0160654 -0.0595791 0)
(-0.00781255 0.0220397 0)
(-0.025333 0.0369692 0)
(-0.0424574 0.0464086 0)
(-0.0587317 0.0526248 0)
(-0.0737645 0.0555922 0)
(-0.0872485 0.0554074 0)
(-0.0988485 0.052342 0)
(-0.10828 0.0467798 0)
(-0.115346 0.0391466 0)
(-0.11997 0.0298486 0)
(-0.122195 0.0192132 0)
(-0.122133 0.0074382 0)
(-0.11977 -0.00541124 0)
(-0.115499 -0.0193055 0)
(-0.108965 -0.0347872 0)
(-0.0995543 -0.0523876 0)
(-0.086238 -0.0720147 0)
(-0.0677905 -0.0916425 0)
(-0.0444324 -0.104035 0)
(-0.0161364 -0.0895841 0)
(-0.00716146 0.0376634 0)
(-0.024021 0.0541218 0)
(-0.0400463 0.0624467 0)
(-0.0546536 0.0672773 0)
(-0.0675368 0.0686398 0)
(-0.0785351 0.0666024 0)
(-0.0874819 0.0614705 0)
(-0.0942705 0.0537038 0)
(-0.0988828 0.0438279 0)
(-0.101416 0.0323518 0)
(-0.102093 0.0196903 0)
(-0.101189 0.00610577 0)
(-0.0988343 -0.00833141 0)
(-0.0956514 -0.0238185 0)
(-0.0912102 -0.0412544 0)
(-0.0849674 -0.0616325 0)
(-0.0756953 -0.0853543 0)
(-0.0614238 -0.110775 0)
(-0.0421252 -0.129815 0)
(-0.0150054 -0.118797 0)
(-0.00544456 0.0516496 0)
(-0.0202422 0.0698224 0)
(-0.0342046 0.0767939 0)
(-0.0466474 0.0799061 0)
(-0.0572621 0.0793993 0)
(-0.0659444 0.0753716 0)
(-0.0726118 0.0681772 0)
(-0.0772483 0.0583506 0)
(-0.079924 0.0465133 0)
(-0.0808247 0.0332793 0)
(-0.0802732 0.0191671 0)
(-0.0786795 0.00451948 0)
(-0.0764058 -0.010613 0)
(-0.0742042 -0.0266971 0)
(-0.0716488 -0.0450493 0)
(-0.0683849 -0.0671977 0)
(-0.0631919 -0.0942745 0)
(-0.0531915 -0.125474 0)
(-0.0387214 -0.152046 0)
(-0.0132013 -0.146136 0)
(-0.00332743 0.0627161 0)
(-0.0153386 0.0831019 0)
(-0.0267555 0.0888662 0)
(-0.036817 0.0902889 0)
(-0.0451897 0.0879497 0)
(-0.0517909 0.0820168 0)
(-0.0565735 0.072903 0)
(-0.0595563 0.0612163 0)
(-0.0608347 0.0476741 0)
(-0.0606123 0.0330129 0)
(-0.0592339 0.0178872 0)
(-0.0571863 0.00273795 0)
(-0.0550575 -0.0124234 0)
(-0.0535025 -0.028323 0)
(-0.0522708 -0.0466237 0)
(-0.0513366 -0.0694308 0)
(-0.049937 -0.0988638 0)
(-0.0439162 -0.135563 0)
(-0.0348218 -0.170283 0)
(-0.011047 -0.170933 0)
(-0.0011752 0.0702301 0)
(-0.0100551 0.0934728 0)
(-0.0187447 0.0984023 0)
(-0.0263929 0.0983777 0)
(-0.0326338 0.0944388 0)
(-0.0374042 0.0868502 0)
(-0.0406813 0.0760862 0)
(-0.0425031 0.0628181 0)
(-0.0429659 0.0478445 0)
(-0.0422519 0.0320158 0)
(-0.0406575 0.0161259 0)
(-0.0386147 0.000725705 0)
(-0.0368326 -0.0140949 0)
(-0.0355414 -0.0293944 0)
(-0.0349269 -0.0468753 0)
(-0.0352559 -0.0691587 0)
(-0.0370725 -0.0996028 0)
(-0.034355 -0.141195 0)
(-0.0309041 -0.184381 0)
(-0.00873901 -0.192883 0)
(0.000744257 0.0740522 0)
(-0.00485219 0.100784 0)
(-0.0107663 0.10536 0)
(-0.016069 0.10423 0)
(-0.020304 0.099033 0)
(-0.0234429 0.0901509 0)
(-0.0254967 0.0781208 0)
(-0.0265345 0.0636632 0)
(-0.0266626 0.0476298 0)
(-0.0260384 0.0309478 0)
(-0.0248606 0.014518 0)
(-0.0232407 -0.00101612 0)
(-0.0222121 -0.0156173 0)
(-0.0211008 -0.0304589 0)
(-0.0207414 -0.0467893 0)
(-0.0211795 -0.0675224 0)
(-0.0254776 -0.0973216 0)
(-0.0251053 -0.142819 0)
(-0.0273142 -0.194458 0)
(-0.00639958 -0.211977 0)
(0.00219664 0.0745186 0)
(-5.94315e-05 0.104907 0)
(-0.00318798 0.109825 0)
(-0.00624084 0.107962 0)
(-0.00856288 0.101878 0)
(-0.0101686 0.0921158 0)
(-0.0111108 0.0792746 0)
(-0.0115099 0.0641075 0)
(-0.0115076 0.0474785 0)
(-0.0112632 0.0303101 0)
(-0.010942 0.0135247 0)
(-0.0105312 -0.00210965 0)
(-0.0101126 -0.0167619 0)
(-0.00941771 -0.0314412 0)
(-0.00961848 -0.0467959 0)
(-0.00952165 -0.0654719 0)
(-0.0156207 -0.0930458 0)
(-0.0165276 -0.141083 0)
(-0.0242374 -0.200826 0)
(-0.00408513 -0.228391 0)
(0.00321848 0.0723435 0)
(0.00403424 0.105808 0)
(0.00366297 0.111759 0)
(0.00282532 0.109671 0)
(0.00237891 0.103073 0)
(0.00232115 0.0928143 0)
(0.00254911 0.0795896 0)
(0.0028787 0.0642 0)
(0.00312012 0.0475302 0)
(0.00310414 0.0304779 0)
(0.00274599 0.0137948 0)
(0.00183142 -0.00209722 0)
(0.00134781 -0.0170329 0)
(0.00111124 -0.0315955 0)
(-0.000311498 -0.0464422 0)
(-0.000110566 -0.0631331 0)
(-0.00755273 -0.087709 0)
(-0.00871102 -0.136637 0)
(-0.0216825 -0.203865 0)
(-0.00177986 -0.242384 0)
(0.00392036 0.067847 0)
(0.00739646 0.103866 0)
(0.00953897 0.111224 0)
(0.0108856 0.109251 0)
(0.0123322 0.102415 0)
(0.0138992 0.0919877 0)
(0.0154225 0.0787936 0)
(0.0166559 0.0636685 0)
(0.017369 0.0474832 0)
(0.0173925 0.0310701 0)
(0.016731 0.0150209 0)
(0.0151401 -0.000670816 0)
(0.0134288 -0.0157767 0)
(0.0115931 -0.0302584 0)
(0.00875261 -0.0448094 0)
(0.00762017 -0.0599467 0)
(-0.00104282 -0.0816695 0)
(-0.0015025 -0.129889 0)
(-0.0194992 -0.203942 0)
(0.00059658 -0.25421 0)
(0.00430869 0.061557 0)
(0.00995409 0.0994953 0)
(0.0142823 0.108403 0)
(0.0177392 0.106809 0)
(0.0211067 0.0999803 0)
(0.0243842 0.0896633 0)
(0.0273351 0.0768369 0)
(0.0296539 0.0623499 0)
(0.0310803 0.0470139 0)
(0.0314489 0.0315448 0)
(0.0307498 0.0163954 0)
(0.0291709 0.00152708 0)
(0.0261899 -0.013057 0)
(0.0226882 -0.0271443 0)
(0.0181618 -0.0411695 0)
(0.014704 -0.0556913 0)
(0.00432733 -0.0759616 0)
(0.00522487 -0.12092 0)
(-0.0174584 -0.201508 0)
(0.00319986 -0.264035 0)
(0.00429872 0.0540998 0)
(0.0115134 0.0932023 0)
(0.0176462 0.103483 0)
(0.023136 0.102352 0)
(0.0284942 0.0957006 0)
(0.0336023 0.0857275 0)
(0.0381278 0.0735594 0)
(0.0417081 0.0600329 0)
(0.0440569 0.0458694 0)
(0.0450016 0.0316544 0)
(0.0444957 0.0177405 0)
(0.0427165 0.00417379 0)
(0.0389978 -0.00924103 0)
(0.0341765 -0.0223679 0)
(0.0280475 -0.0354821 0)
(0.0221093 -0.0492267 0)
(0.00934757 -0.0688371 0)
(0.0113566 -0.111108 0)
(-0.0152413 -0.197164 0)
(0.00640017 -0.271759 0)
(0.00367523 0.0462747 0)
(0.011713 0.085568 0)
(0.0192654 0.096652 0)
(0.0267737 0.0958243 0)
(0.0342769 0.0894314 0)
(0.0414028 0.0800106 0)
(0.0476846 0.0687793 0)
(0.0527063 0.0565248 0)
(0.0561648 0.0438586 0)
(0.0578811 0.031247 0)
(0.0577796 0.0189801 0)
(0.0559818 0.00715936 0)
(0.0518121 -0.00459715 0)
(0.0459972 -0.0162209 0)
(0.0384923 -0.0279385 0)
(0.0301794 -0.0405485 0)
(0.0154211 -0.0596075 0)
(0.0168126 -0.101702 0)
(-0.0121451 -0.190957 0)
(0.0109822 -0.276921 0)
(0.00188275 0.039301 0)
(0.0098774 0.0772278 0)
(0.0186676 0.0880341 0)
(0.0283557 0.0870793 0)
(0.0382862 0.0809552 0)
(0.047694 0.0723079 0)
(0.0559472 0.0623152 0)
(0.0625911 0.0516584 0)
(0.0673273 0.0408223 0)
(0.0699874 0.0301608 0)
(0.0704952 0.0199053 0)
(0.0688921 0.010176 0)
(0.0649888 0.000729045 0)
(0.0584531 -0.00891651 0)
(0.0498514 -0.0188165 0)
(0.0394029 -0.0299518 0)
(0.0234174 -0.0485557 0)
(0.0230948 -0.0928183 0)
(-0.00663308 -0.184724 0)
(0.0178457 -0.278821 0)
(-0.00219294 0.0347617 0)
(0.00466624 0.0691021 0)
(0.0154146 0.0776463 0)
(0.0277485 0.0758197 0)
(0.0405364 0.0699572 0)
(0.0525409 0.0623528 0)
(0.0629834 0.0539377 0)
(0.0714154 0.0452158 0)
(0.0775796 0.036528 0)
(0.0813457 0.0281182 0)
(0.0826693 0.0201505 0)
(0.0815682 0.0127201 0)
(0.078136 0.00576541 0)
(0.0718176 -0.00132845 0)
(0.0626866 -0.0091066 0)
(0.0508321 -0.0182868 0)
(0.0351523 -0.0365611 0)
(0.033669 -0.0846028 0)
(0.00373437 -0.177193 0)
(0.0283003 -0.274939 0)
(-0.00860816 0.0397376 0)
(-0.00588943 0.0601195 0)
(0.00952829 0.0650008 0)
(0.0254878 0.0617764 0)
(0.0417281 0.0564234 0)
(0.0566684 0.0502935 0)
(0.0695334 0.0438964 0)
(0.0799711 0.0375088 0)
(0.0878192 0.0313172 0)
(0.0930289 0.0254607 0)
(0.0956301 0.0200402 0)
(0.095701 0.0151221 0)
(0.093339 0.010726 0)
(0.0885995 0.00674721 0)
(0.0809435 0.00271978 0)
(0.0695531 -0.00336606 0)
(0.0587306 -0.0244486 0)
(0.0576253 -0.0761107 0)
(0.0262302 -0.161767 0)
(0.0463085 -0.254708 0)
(-0.0150085 0.0559849 0)
(-0.0168803 0.045243 0)
(0.00760857 0.0416395 0)
(0.0294347 0.0393648 0)
(0.0501417 0.0362621 0)
(0.0688682 0.032679 0)
(0.0851071 0.0290394 0)
(0.0986984 0.0255251 0)
(0.109638 0.0222096 0)
(0.118019 0.0191439 0)
(0.124004 0.0163672 0)
(0.127805 0.0138965 0)
(0.129687 0.0116911 0)
(0.130009 0.00946783 0)
(0.128996 0.00582042 0)
(0.124531 -0.00407947 0)
(0.125379 -0.0262438 0)
(0.122498 -0.0652223 0)
(0.0835352 -0.126173 0)
(0.0835049 -0.200126 0)
(0.0657975 0.0564124 0)
(0.0806834 0.0405467 0)
(0.117803 0.0305037 0)
(0.151178 0.0253032 0)
(0.180174 0.0219982 0)
(0.20617 0.0194751 0)
(0.22962 0.017422 0)
(0.250635 0.0157041 0)
(0.26934 0.0142356 0)
(0.285906 0.0129627 0)
(0.300526 0.0118515 0)
(0.313391 0.0108743 0)
(0.324646 0.00999001 0)
(0.334207 0.00905878 0)
(0.341494 0.00747071 0)
(0.345194 0.00347973 0)
(0.336208 -0.0044372 0)
(0.305009 -0.0193267 0)
(0.231252 -0.0491697 0)
(0.167747 -0.105238 0)
)
;

boundaryField
{
    movingWall
    {
        type            fixedValue;
        value           uniform (1 0 0);
    }
    fixedWalls
    {
        type            noSlip;
    }
    frontAndBack
    {
        type            empty;
    }
}


// ************************************************************************* //
