/*--------------------------------*- C++ -*----------------------------------*\
  =========                 |
  \\      /  F ield         | OpenFOAM: The Open Source CFD Toolbox
   \\    /   O peration     | Website:  https://openfoam.org
    \\  /    A nd           | Version:  8
     \\/     M anipulation  |
\*---------------------------------------------------------------------------*/
FoamFile
{
    version     2.0;
    format      ascii;
    class       volScalarField;
    location    "8";
    object      p;
}
// * * * * * * * * * * * * * * * * * * * * * * * * * * * * * * * * * * * * * //

dimensions      [0 2 -2 0 0 0 0];

internalField   nonuniform List<scalar> 
400
(
1.56304e-08
-0.000180836
-0.000386925
-0.000632324
-0.00100655
-0.00151784
-0.00215412
-0.00285097
-0.00350591
-0.00399584
-0.00419048
-0.00395911
-0.00318338
-0.00179299
0.00021019
0.00271002
0.00536349
0.00754511
0.00859605
0.00842734
0.000174704
1.78674e-05
-0.000256443
-0.000579212
-0.00101411
-0.00160012
-0.00232078
-0.00310563
-0.00384686
-0.00441924
-0.00469679
-0.00455928
-0.00389973
-0.0026831
-0.000838545
0.00151465
0.00407208
0.00629229
0.00753276
0.00762522
0.000498262
0.000220591
-0.000161048
-0.000653243
-0.00129491
-0.00209324
-0.00301014
-0.00396234
-0.00483735
-0.00551389
-0.00588092
-0.00584713
-0.00533046
-0.00422615
-0.00255276
-0.000385107
0.0020642
0.00435752
0.0058435
0.0061927
0.000588914
0.000226156
-0.000322303
-0.00103944
-0.00193014
-0.00296611
-0.00408334
-0.0051876
-0.00616895
-0.00692045
-0.00735437
-0.00740158
-0.00699069
-0.00606431
-0.00462298
-0.00269882
-0.000413522
0.00190545
0.00359352
0.00418602
0.000266965
-0.000153934
-0.000840343
-0.00174797
-0.00284332
-0.00406594
-0.00533128
-0.00653797
-0.00758189
-0.00837249
-0.0088442
-0.00894943
-0.0086394
-0.00789204
-0.00670873
-0.00507852
-0.00303759
-0.000791965
0.00099068
0.0017922
-0.000459784
-0.000901723
-0.00166558
-0.00268854
-0.00390892
-0.00524123
-0.00658494
-0.00783395
-0.00889032
-0.00967787
-0.0101491
-0.010278
-0.0100471
-0.00946687
-0.00854157
-0.00723205
-0.00550861
-0.00344298
-0.00169301
-0.000736556
-0.00143563
-0.00186829
-0.00265515
-0.00372257
-0.00499166
-0.00636041
-0.00771753
-0.00895418
-0.00997792
-0.0107243
-0.0111612
-0.0112842
-0.0111066
-0.0106634
-0.00996574
-0.00896567
-0.00759926
-0.00579838
-0.00420059
-0.00314733
-0.0024689
-0.00287598
-0.0036502
-0.00471098
-0.00597176
-0.00732233
-0.00864624
-0.00983403
-0.0107978
-0.0114824
-0.011869
-0.0119705
-0.0118231
-0.0114772
-0.0109524
-0.0102086
-0.00918929
-0.00769441
-0.00633369
-0.00523865
-0.00341198
-0.00377847
-0.00452111
-0.00554351
-0.0067603
-0.00806029
-0.00932709
-0.0104526
-0.0113524
-0.0119776
-0.0123177
-0.0123917
-0.0122632
-0.0119755
-0.0115586
-0.0109903
-0.0102638
-0.00906484
-0.00797696
-0.00687893
-0.00417557
-0.00448247
-0.00518163
-0.00614688
-0.00730041
-0.00853525
-0.00973971
-0.0108089
-0.0116599
-0.0122454
-0.0125586
-0.0126258
-0.012503
-0.0122315
-0.011864
-0.0113801
-0.0108795
-0.00992024
-0.00909269
-0.00799991
-0.00470643
-0.00495936
-0.00559321
-0.00648658
-0.0075648
-0.00873019
-0.00987784
-0.0109056
-0.0117305
-0.0123015
-0.0126078
-0.0126775
-0.012554
-0.0122724
-0.0119187
-0.0114304
-0.011108
-0.0103029
-0.00968813
-0.00857447
-0.00500066
-0.00520771
-0.00576393
-0.00657171
-0.00756506
-0.0086587
-0.00975447
-0.010752
-0.0115658
-0.0121396
-0.0124533
-0.0125286
-0.0123971
-0.0121037
-0.0117163
-0.011217
-0.0109606
-0.0102325
-0.00979857
-0.00859413
-0.00509821
-0.00525658
-0.0057185
-0.00642429
-0.00732389
-0.00834412
-0.0093918
-0.0103662
-0.0111778
-0.0117633
-0.0120929
-0.0121684
-0.0120289
-0.0117198
-0.0112922
-0.0107627
-0.0104698
-0.00970986
-0.00951768
-0.00803314
-0.00505525
-0.0051536
-0.00549031
-0.00606721
-0.00686041
-0.00780671
-0.0088132
-0.00977483
-0.0105949
-0.011201
-0.0115524
-0.0116374
-0.0114941
-0.0111652
-0.010692
-0.0101154
-0.00973347
-0.00874629
-0.00895656
-0.00677658
-0.00493115
-0.00494724
-0.0051121
-0.00552417
-0.00619717
-0.00707349
-0.00805237
-0.00901815
-0.00986343
-0.0105051
-0.0108912
-0.0109994
-0.0108612
-0.0105104
-0.00998665
-0.00934604
-0.00882022
-0.00759137
-0.0079383
-0.00462234
-0.00478636
-0.00466482
-0.00460263
-0.0048164
-0.00536363
-0.00618407
-0.00715782
-0.00815139
-0.00904352
-0.00973956
-0.0101778
-0.0103281
-0.0102006
-0.0098351
-0.0092701
-0.00855795
-0.00782597
-0.00633126
-0.0062124
-0.00134662
-0.00468997
-0.00428056
-0.00395786
-0.00395971
-0.00439728
-0.00519269
-0.00619397
-0.00724459
-0.00820816
-0.00897929
-0.00948801
-0.00969827
-0.00960466
-0.00924397
-0.00865487
-0.00786242
-0.00683288
-0.00479373
-0.00312968
0.00475973
-0.00465029
-0.00381361
-0.00317805
-0.00297912
-0.00335125
-0.00416713
-0.00523265
-0.00636815
-0.00742414
-0.00828684
-0.00888046
-0.00916443
-0.00912721
-0.00877723
-0.00813692
-0.00722807
-0.00577124
-0.00233352
0.00326356
0.0182076
-0.00513495
-0.0033369
-0.00235538
-0.00202748
-0.00240605
-0.00329199
-0.00445412
-0.00569398
-0.00685192
-0.00781003
-0.00849113
-0.00885427
-0.00888931
-0.00861443
-0.00808235
-0.00724677
-0.00453924
0.0024166
0.0155647
0.0420511
-0.00823488
-0.00207839
-0.000450749
-0.00049758
-0.00114861
-0.00221197
-0.00353789
-0.00493131
-0.00622416
-0.007298
-0.0080775
-0.00852133
-0.008609
-0.0082936
-0.00730044
-0.00468801
0.00084413
0.0122846
0.0324352
0.0658978
)
;

boundaryField
{
    movingWall
    {
        type            zeroGradient;
    }
    fixedWalls
    {
        type            zeroGradient;
    }
    frontAndBack
    {
        type            empty;
    }
}


// ************************************************************************* //
