/*--------------------------------*- C++ -*----------------------------------*\
  =========                 |
  \\      /  F ield         | OpenFOAM: The Open Source CFD Toolbox
   \\    /   O peration     | Website:  https://openfoam.org
    \\  /    A nd           | Version:  8
     \\/     M anipulation  |
\*---------------------------------------------------------------------------*/
FoamFile
{
    version     2.0;
    format      ascii;
    class       surfaceScalarField;
    location    "8";
    object      phi;
}
// * * * * * * * * * * * * * * * * * * * * * * * * * * * * * * * * * * * * * //

dimensions      [0 3 -1 0 0 0 0];

internalField   nonuniform List<scalar> 
760
(
2.50071e-07
-2.50073e-07
2.50799e-07
-7.27749e-10
-3.7792e-08
2.88591e-07
-5.9133e-07
5.53538e-07
-1.3052e-06
7.13868e-07
-2.10489e-06
7.99695e-07
-2.92856e-06
8.23665e-07
-3.72479e-06
7.96232e-07
-4.45115e-06
7.26358e-07
-5.07229e-06
6.21142e-07
-5.55783e-06
4.85534e-07
-5.87859e-06
3.2076e-07
-6.00172e-06
1.23135e-07
-5.8881e-06
-1.13626e-07
-5.4932e-06
-3.94896e-07
-4.77764e-06
-7.1556e-07
-3.7223e-06
-1.05534e-06
-2.36527e-06
-1.35703e-06
-9.158e-07
-1.44947e-06
-9.158e-07
-2.63387e-07
1.33141e-08
-8.26633e-07
5.62519e-07
-1.58353e-06
1.04548e-06
-2.41325e-06
1.38326e-06
-3.28814e-06
1.58876e-06
-4.16342e-06
1.67498e-06
-4.99435e-06
1.6546e-06
-5.7409e-06
1.54278e-06
-6.36835e-06
1.35381e-06
-6.84726e-06
1.10005e-06
-7.15266e-06
7.90935e-07
-7.26306e-06
4.31153e-07
-7.14094e-06
1.01538e-09
-6.80105e-06
-4.53516e-07
-6.21946e-06
-9.76479e-07
-5.3796e-06
-1.55542e-06
-4.26064e-06
-2.1743e-06
-2.87301e-06
-2.74466e-06
-1.32665e-06
-2.99583e-06
-2.24245e-06
-6.76285e-07
6.89599e-07
-1.50635e-06
1.39258e-06
-2.34905e-06
1.88818e-06
-3.19092e-06
2.22513e-06
-4.00683e-06
2.40468e-06
-4.76749e-06
2.43564e-06
-5.44493e-06
2.33203e-06
-6.01397e-06
2.11182e-06
-6.45431e-06
1.79414e-06
-6.75124e-06
1.39699e-06
-6.89491e-06
9.3461e-07
-6.87722e-06
4.13462e-07
-6.70933e-06
-1.66875e-07
-6.37173e-06
-7.91118e-07
-5.8602e-06
-1.48802e-06
-5.1412e-06
-2.27442e-06
-4.17559e-06
-3.1399e-06
-2.93709e-06
-3.98316e-06
-1.46503e-06
-4.46789e-06
-3.70748e-06
-8.04532e-07
1.49413e-06
-1.69112e-06
2.27917e-06
-2.52871e-06
2.72577e-06
-3.30825e-06
3.00468e-06
-4.01852e-06
3.11494e-06
-4.64366e-06
3.06078e-06
-5.16851e-06
2.85688e-06
-5.58119e-06
2.52449e-06
-5.87463e-06
2.08759e-06
-6.04691e-06
1.56927e-06
-6.10039e-06
9.8809e-07
-6.0409e-06
3.53967e-07
-5.8806e-06
-3.27168e-07
-5.61307e-06
-1.05865e-06
-5.22113e-06
-1.87996e-06
-4.66698e-06
-2.82857e-06
-3.89416e-06
-3.91272e-06
-2.8374e-06
-5.03992e-06
-1.47915e-06
-5.82615e-06
-5.18663e-06
-7.60221e-07
2.25435e-06
-1.59542e-06
3.11437e-06
-2.36297e-06
3.49332e-06
-3.04829e-06
3.69e-06
-3.64378e-06
3.71043e-06
-4.14134e-06
3.55834e-06
-4.53449e-06
3.25003e-06
-4.82027e-06
2.81027e-06
-5.00042e-06
2.26774e-06
-5.0817e-06
1.65054e-06
-5.07536e-06
9.81757e-07
-4.99672e-06
2.75322e-07
-4.86116e-06
-4.62725e-07
-4.66965e-06
-1.25015e-06
-4.40658e-06
-2.14304e-06
-4.03064e-06
-3.2045e-06
-3.4697e-06
-4.47367e-06
-2.62045e-06
-5.88917e-06
-1.41728e-06
-7.02932e-06
-6.60391e-06
-6.2808e-07
2.88243e-06
-1.35368e-06
3.83997e-06
-2.01465e-06
4.15428e-06
-2.58957e-06
4.26492e-06
-3.07107e-06
4.19194e-06
-3.45438e-06
3.94165e-06
-3.73731e-06
3.53296e-06
-3.92133e-06
2.99429e-06
-4.01258e-06
2.35899e-06
-4.02273e-06
1.66069e-06
-3.96952e-06
9.28555e-07
-3.87673e-06
1.8253e-07
-3.76451e-06
-5.74945e-07
-3.64156e-06
-1.3731e-06
-3.49768e-06
-2.28692e-06
-3.29447e-06
-3.40772e-06
-2.95014e-06
-4.818e-06
-2.3251e-06
-6.51421e-06
-1.30895e-06
-8.04547e-06
-7.91285e-06
-4.5753e-07
3.33996e-06
-1.04446e-06
4.42691e-06
-1.58155e-06
4.69137e-06
-2.04087e-06
4.72423e-06
-2.41455e-06
4.56562e-06
-2.69907e-06
4.22617e-06
-2.89398e-06
3.72787e-06
-3.00217e-06
3.10249e-06
-3.03091e-06
2.38773e-06
-2.99333e-06
1.62311e-06
-2.90984e-06
8.45062e-07
-2.80956e-06
8.2255e-08
-2.71407e-06
-6.7044e-07
-2.63786e-06
-1.44931e-06
-2.58347e-06
-2.34132e-06
-2.52624e-06
-3.46494e-06
-2.38599e-06
-4.95824e-06
-1.98721e-06
-6.91299e-06
-1.17387e-06
-8.85881e-06
-9.08673e-06
-2.75767e-07
3.61573e-06
-7.12059e-07
4.8632e-06
-1.12035e-06
5.09966e-06
-1.46581e-06
5.0697e-06
-1.74042e-06
4.84023e-06
-1.94165e-06
4.4274e-06
-2.07016e-06
3.85637e-06
-2.12942e-06
3.16174e-06
-2.12622e-06
2.38453e-06
-2.07233e-06
1.56921e-06
-1.98564e-06
7.58382e-07
-1.8937e-06
-9.68932e-09
-1.81088e-06
-7.53257e-07
-1.75531e-06
-1.50488e-06
-1.74774e-06
-2.34889e-06
-1.79134e-06
-3.42133e-06
-1.82442e-06
-4.92517e-06
-1.63844e-06
-7.09896e-06
-1.0299e-06
-9.46735e-06
-1.01166e-05
-1.02718e-07
3.71845e-06
-3.82005e-07
5.14248e-06
-6.63222e-07
5.38088e-06
-8.99515e-07
5.30599e-06
-1.08303e-06
5.02374e-06
-1.21278e-06
4.55715e-06
-1.29114e-06
3.93474e-06
-1.3228e-06
3.1934e-06
-1.31425e-06
2.37599e-06
-1.27369e-06
1.52866e-06
-1.21315e-06
6.97839e-07
-1.14424e-06
-7.8599e-08
-1.08688e-06
-8.10621e-07
-1.04158e-06
-1.55018e-06
-1.04636e-06
-2.34412e-06
-1.1398e-06
-3.32789e-06
-1.30228e-06
-4.76268e-06
-1.30316e-06
-7.09808e-06
-8.89806e-07
-9.88071e-06
-1.10064e-05
4.87911e-08
3.66966e-06
-7.39628e-08
5.26524e-06
-2.29416e-07
5.53633e-06
-3.61247e-07
5.43782e-06
-4.5842e-07
5.12091e-06
-5.21728e-07
4.62046e-06
-5.56036e-07
3.96905e-06
-5.68316e-07
3.20568e-06
-5.66684e-07
2.37436e-06
-5.58752e-07
1.52072e-06
-5.47118e-07
6.86205e-07
-5.24529e-07
-1.01188e-07
-4.96562e-07
-8.38588e-07
-4.71796e-07
-1.57494e-06
-4.89128e-07
-2.32678e-06
-5.95189e-07
-3.22183e-06
-8.41232e-07
-4.51664e-06
-9.97508e-07
-6.9418e-06
-7.61001e-07
-1.01172e-05
-1.17674e-05
1.72232e-07
3.49742e-06
2.0114e-07
5.23633e-06
1.67736e-07
5.56974e-06
1.36896e-07
5.46866e-06
1.24862e-07
5.13295e-06
1.29519e-07
4.6158e-06
1.43157e-07
3.95541e-06
1.56017e-07
3.19282e-06
1.58313e-07
2.37206e-06
1.4243e-07
1.53661e-06
1.08782e-07
7.19854e-07
7.48579e-08
-6.72648e-08
5.51717e-08
-8.18901e-07
2.39965e-08
-1.54377e-06
-1.76292e-08
-2.28516e-06
-1.6218e-07
-3.07728e-06
-4.44183e-07
-4.23464e-06
-7.25606e-07
-6.66038e-06
-6.44666e-07
-1.01982e-05
-1.24121e-05
2.71821e-07
3.2256e-06
4.31288e-07
5.07686e-06
5.15815e-07
5.48521e-06
5.87248e-07
5.39723e-06
6.64046e-07
5.05615e-06
7.42274e-07
4.53758e-06
8.10899e-07
3.88678e-06
8.57731e-07
3.14598e-06
8.72467e-07
2.35733e-06
8.49365e-07
1.55971e-06
7.89603e-07
7.79616e-07
7.03534e-07
1.88045e-08
6.13454e-07
-7.28821e-07
5.11266e-07
-1.44158e-06
3.80602e-07
-2.15449e-06
1.98116e-07
-2.89479e-06
-8.75842e-08
-3.94893e-06
-4.79628e-07
-6.26834e-06
-5.37484e-07
-1.01403e-05
-1.29496e-05
3.44359e-07
2.88124e-06
6.10961e-07
4.81026e-06
8.04271e-07
5.2919e-06
9.76672e-07
5.22483e-06
1.14467e-06
4.88815e-06
1.30159e-06
4.38065e-06
1.43318e-06
3.7552e-06
1.52512e-06
3.05404e-06
1.5669e-06
2.31554e-06
1.55447e-06
1.57214e-06
1.49005e-06
8.44042e-07
1.37346e-06
1.35388e-07
1.21186e-06
-5.67218e-07
1.01757e-06
-1.24729e-06
7.87582e-07
-1.9245e-06
5.22631e-07
-2.62984e-06
1.98701e-07
-3.625e-06
-2.50067e-07
-5.81957e-06
-4.35295e-07
-9.95507e-06
-1.33849e-05
3.82596e-07
2.49865e-06
7.28572e-07
4.46429e-06
1.02093e-06
4.99954e-06
1.29517e-06
4.95059e-06
1.55931e-06
4.62401e-06
1.80153e-06
4.13843e-06
2.00406e-06
3.55267e-06
2.15071e-06
2.9074e-06
2.23036e-06
2.23588e-06
2.23814e-06
1.56437e-06
2.17319e-06
9.08987e-07
2.03379e-06
2.74789e-07
1.82087e-06
-3.543e-07
1.5481e-06
-9.74523e-07
1.22e-06
-1.59641e-06
8.45655e-07
-2.25549e-06
4.40458e-07
-3.21981e-06
-5.33563e-08
-5.32576e-06
-3.21512e-07
-9.68692e-06
-1.37064e-05
3.71753e-07
2.1269e-06
7.65062e-07
4.07098e-06
1.1489e-06
4.6157e-06
1.53003e-06
4.56945e-06
1.89921e-06
4.25483e-06
2.23581e-06
3.80183e-06
2.51807e-06
3.27041e-06
2.72839e-06
2.69708e-06
2.85518e-06
2.10909e-06
2.89269e-06
1.52686e-06
2.83819e-06
9.63488e-07
2.68786e-06
4.25122e-07
2.43709e-06
-1.03532e-07
2.10245e-06
-6.39886e-07
1.68754e-06
-1.18149e-06
1.20683e-06
-1.77479e-06
6.98821e-07
-2.7118e-06
2.17659e-07
-4.84459e-06
-1.16343e-07
-9.35292e-06
-1.38227e-05
2.7771e-07
1.84919e-06
6.94135e-07
3.65455e-06
1.16929e-06
4.14055e-06
1.67007e-06
4.06867e-06
2.15827e-06
3.76663e-06
2.60084e-06
3.35927e-06
2.97234e-06
2.89891e-06
3.25475e-06
2.41467e-06
3.4369e-06
1.92694e-06
3.51321e-06
1.45055e-06
3.48137e-06
9.95324e-07
3.33967e-06
5.6682e-07
3.07838e-06
1.57762e-07
2.69825e-06
-2.59759e-07
2.21297e-06
-6.96206e-07
1.63822e-06
-1.20004e-06
1.04352e-06
-2.1171e-06
5.76164e-07
-4.37723e-06
1.60184e-07
-8.93694e-06
-1.36626e-05
4.60413e-08
1.80314e-06
4.809e-07
3.21969e-06
1.06722e-06
3.55423e-06
1.71317e-06
3.42272e-06
2.33888e-06
3.14092e-06
2.89992e-06
2.79823e-06
3.36978e-06
2.42905e-06
3.73192e-06
2.05252e-06
3.97708e-06
1.68179e-06
4.10127e-06
1.32635e-06
4.10386e-06
9.9273e-07
3.98584e-06
6.84848e-07
3.74154e-06
4.02062e-07
3.35695e-06
1.24824e-07
2.84056e-06
-1.79814e-07
2.22422e-06
-5.83705e-07
1.6193e-06
-1.51217e-06
1.15633e-06
-3.91427e-06
5.51242e-07
-8.33185e-06
-1.31113e-05
-4.22563e-07
2.22571e-06
7.80512e-08
2.71908e-06
8.60151e-07
2.77213e-06
1.69252e-06
2.59035e-06
2.4769e-06
2.35654e-06
3.16945e-06
2.10568e-06
3.74849e-06
1.85001e-06
4.20204e-06
1.59898e-06
4.52497e-06
1.35887e-06
4.71709e-06
1.13423e-06
4.7813e-06
9.28521e-07
4.7222e-06
7.43944e-07
4.54334e-06
5.80926e-07
4.23361e-06
4.34552e-07
3.79209e-06
2.61704e-07
3.33095e-06
-1.22567e-07
2.91815e-06
-1.09938e-06
2.38255e-06
-3.37867e-06
1.3249e-06
-7.2742e-06
-1.17864e-05
-9.3741e-07
3.16312e-06
-2.18267e-07
1.99993e-06
9.18815e-07
1.63505e-06
2.01144e-06
1.49772e-06
2.99734e-06
1.37064e-06
3.86588e-06
1.23714e-06
4.60657e-06
1.10932e-06
5.21537e-06
9.90177e-07
5.6946e-06
8.79633e-07
6.05071e-06
7.78127e-07
6.29296e-06
6.86268e-07
6.43296e-06
6.03951e-07
6.48555e-06
5.28329e-07
6.47641e-06
4.43692e-07
6.45127e-06
2.86851e-07
6.40426e-06
-7.55639e-08
6.30921e-06
-1.00432e-06
5.46705e-06
-2.53651e-06
3.2445e-06
-5.05165e-06
-8.54191e-06
3.16312e-06
5.16305e-06
6.7981e-06
8.29582e-06
9.66647e-06
1.09036e-05
1.20129e-05
1.30031e-05
1.38827e-05
1.46609e-05
1.53471e-05
1.59511e-05
1.64794e-05
1.69231e-05
1.721e-05
1.71344e-05
1.61301e-05
1.35936e-05
8.54191e-06
)
;

boundaryField
{
    movingWall
    {
        type            calculated;
        value           uniform 0;
    }
    fixedWalls
    {
        type            calculated;
        value           uniform 0;
    }
    frontAndBack
    {
        type            empty;
        value           nonuniform List<scalar> 0();
    }
}


// ************************************************************************* //
