/*--------------------------------*- C++ -*----------------------------------*\
  =========                 |
  \\      /  F ield         | OpenFOAM: The Open Source CFD Toolbox
   \\    /   O peration     | Website:  https://openfoam.org
    \\  /    A nd           | Version:  8
     \\/     M anipulation  |
\*---------------------------------------------------------------------------*/
FoamFile
{
    version     2.0;
    format      ascii;
    class       volVectorField;
    location    "8";
    object      U;
}
// * * * * * * * * * * * * * * * * * * * * * * * * * * * * * * * * * * * * * //

dimensions      [0 1 -1 0 0 0 0];

internalField   nonuniform List<vector> 
400
(
(0.00306742 -0.0040208 0)
(0.00620236 -0.00370313 0)
(0.00398293 -0.00102023 0)
(-0.00525952 0.00332768 0)
(-0.018325 0.00616711 0)
(-0.0339975 0.00790105 0)
(-0.0506089 0.00875065 0)
(-0.0670678 0.00890732 0)
(-0.0824752 0.00853359 0)
(-0.0960895 0.00774573 0)
(-0.10728 0.0066119 0)
(-0.115443 0.00513796 0)
(-0.119939 0.0032499 0)
(-0.120124 0.000783519 0)
(-0.115005 -0.00253424 0)
(-0.103541 -0.00647088 0)
(-0.0853141 -0.0106997 0)
(-0.0609372 -0.014381 0)
(-0.0330337 -0.0151175 0)
(-0.00763668 -0.00715336 0)
(-0.000702985 -0.00575555 0)
(-0.010149 0.00376854 0)
(-0.0234713 0.0133236 0)
(-0.0394555 0.0197204 0)
(-0.0568753 0.0235187 0)
(-0.0747362 0.0253005 0)
(-0.0920786 0.0253678 0)
(-0.108067 0.0239845 0)
(-0.121962 0.0213818 0)
(-0.133144 0.017754 0)
(-0.141092 0.0132422 0)
(-0.145324 0.0078986 0)
(-0.14531 0.00163132 0)
(-0.140541 -0.00580908 0)
(-0.131143 -0.0141998 0)
(-0.116718 -0.0234752 0)
(-0.096788 -0.0332274 0)
(-0.0715068 -0.0418719 0)
(-0.0426476 -0.0447632 0)
(-0.0138223 -0.0305383 0)
(-0.00621869 0.00659774 0)
(-0.0218484 0.0197765 0)
(-0.0383792 0.0295963 0)
(-0.0554047 0.0364227 0)
(-0.0722139 0.0403316 0)
(-0.0882016 0.0415466 0)
(-0.102766 0.0403394 0)
(-0.115365 0.037024 0)
(-0.125539 0.0319193 0)
(-0.132945 0.0253156 0)
(-0.137366 0.0174394 0)
(-0.138679 0.00840965 0)
(-0.136743 -0.0017981 0)
(-0.131563 -0.0131783 0)
(-0.123075 -0.0256916 0)
(-0.110707 -0.0395757 0)
(-0.0936797 -0.0545132 0)
(-0.0714589 -0.0685065 0)
(-0.044928 -0.0753988 0)
(-0.0160623 -0.0595678 0)
(-0.00780613 0.0220221 0)
(-0.0253189 0.0369465 0)
(-0.0424365 0.0463848 0)
(-0.0587055 0.0526021 0)
(-0.0737342 0.0555722 0)
(-0.0872153 0.0553914 0)
(-0.0988133 0.0523304 0)
(-0.108243 0.0467728 0)
(-0.11531 0.039144 0)
(-0.119933 0.0298499 0)
(-0.122159 0.0192182 0)
(-0.122099 0.00744656 0)
(-0.119738 -0.0053999 0)
(-0.11547 -0.0192915 0)
(-0.10894 -0.0347709 0)
(-0.0995338 -0.05237 0)
(-0.0862222 -0.0719964 0)
(-0.0677793 -0.0916242 0)
(-0.0444255 -0.104017 0)
(-0.0161337 -0.0895681 0)
(-0.00715622 0.037637 0)
(-0.0240087 0.0540917 0)
(-0.0400277 0.0624171 0)
(-0.0546302 0.0672501 0)
(-0.0675098 0.0686166 0)
(-0.0785054 0.066584 0)
(-0.0874504 0.0614574 0)
(-0.0942376 0.0536959 0)
(-0.0988489 0.0438249 0)
(-0.101382 0.0323533 0)
(-0.102059 0.019696 0)
(-0.101155 0.00611556 0)
(-0.0988018 -0.0083177 0)
(-0.095622 -0.0238011 0)
(-0.0911853 -0.0412338 0)
(-0.0849476 -0.0616101 0)
(-0.0756804 -0.0853314 0)
(-0.0614135 -0.110753 0)
(-0.0421189 -0.129793 0)
(-0.015003 -0.118777 0)
(-0.00544046 0.0516156 0)
(-0.020232 0.0697856 0)
(-0.0341888 0.076759 0)
(-0.0466273 0.0798749 0)
(-0.0572386 0.0793731 0)
(-0.0659183 0.075351 0)
(-0.0725836 0.0681623 0)
(-0.0772182 0.0583413 0)
(-0.079892 0.046509 0)
(-0.0807909 0.0332799 0)
(-0.0802378 0.0191725 0)
(-0.0786434 0.00452995 0)
(-0.0763707 -0.010597 0)
(-0.0741726 -0.0266755 0)
(-0.0716226 -0.0450234 0)
(-0.0683648 -0.0671697 0)
(-0.0631777 -0.0942466 0)
(-0.0531821 -0.125447 0)
(-0.0387156 -0.15202 0)
(-0.0131992 -0.146112 0)
(-0.00332446 0.062676 0)
(-0.0153304 0.0830592 0)
(-0.0267425 0.0888266 0)
(-0.0368003 0.0902539 0)
(-0.0451699 0.0879205 0)
(-0.0517685 0.0819937 0)
(-0.0565487 0.0728859 0)
(-0.0595291 0.0612047 0)
(-0.0608047 0.0476675 0)
(-0.0605791 0.0330112 0)
(-0.0591975 0.017891 0)
(-0.0571476 0.00274856 0)
(-0.0550189 -0.0124051 0)
(-0.0534678 -0.0282965 0)
(-0.0522425 -0.0465909 0)
(-0.0513158 -0.0693958 0)
(-0.0499232 -0.0988301 0)
(-0.0439077 -0.135532 0)
(-0.0348167 -0.170253 0)
(-0.0110453 -0.170904 0)
(-0.0011734 0.0701854 0)
(-0.0100491 0.0934254 0)
(-0.0187348 0.0983588 0)
(-0.0263798 0.0983395 0)
(-0.032618 0.0944068 0)
(-0.0373859 0.0868246 0)
(-0.0406607 0.0760666 0)
(-0.0424798 0.0628037 0)
(-0.0429395 0.0478346 0)
(-0.0422216 0.0320104 0)
(-0.040623 0.016126 0)
(-0.0385778 0.000733824 0)
(-0.0367938 -0.0140754 0)
(-0.0355058 -0.0293627 0)
(-0.0348977 -0.0468346 0)
(-0.0352346 -0.0691153 0)
(-0.0370591 -0.0995621 0)
(-0.0343478 -0.141159 0)
(-0.0308997 -0.184348 0)
(-0.0087376 -0.192852 0)
(0.000744825 0.0740046 0)
(-0.00484852 0.100733 0)
(-0.0107597 0.105313 0)
(-0.01606 0.104189 0)
(-0.0202927 0.0989986 0)
(-0.0234296 0.0901229 0)
(-0.0254812 0.0780986 0)
(-0.0265165 0.0636459 0)
(-0.0266416 0.0476165 0)
(-0.0260136 0.0309384 0)
(-0.0248315 0.0145141 0)
(-0.0232073 -0.00101076 0)
(-0.0221789 -0.0155972 0)
(-0.0210695 -0.0304233 0)
(-0.020715 -0.0467415 0)
(-0.0211592 -0.0674707 0)
(-0.0254653 -0.0972732 0)
(-0.0250998 -0.142779 0)
(-0.0273109 -0.194423 0)
(-0.00639852 -0.211943 0)
(0.00219596 0.07447 0)
(-5.82829e-05 0.104853 0)
(-0.00318504 0.109776 0)
(-0.00623627 0.10792 0)
(-0.00855675 0.101842 0)
(-0.0101609 0.0920859 0)
(-0.0111015 0.0792504 0)
(-0.0114987 0.0640877 0)
(-0.0114942 0.0474622 0)
(-0.0112471 0.0302972 0)
(-0.0109232 0.0135176 0)
(-0.0105105 -0.0021054 0)
(-0.0100919 -0.0167417 0)
(-0.00939688 -0.0314042 0)
(-0.00959995 -0.046744 0)
(-0.00950519 -0.0654138 0)
(-0.0156105 -0.0929899 0)
(-0.0165245 -0.141039 0)
(-0.0242355 -0.200789 0)
(-0.00408444 -0.228355 0)
(0.00321672 0.0722956 0)
(0.00403278 0.105754 0)
(0.0036619 0.111709 0)
(0.00282494 0.109626 0)
(0.0023793 0.103036 0)
(0.00232241 0.092783 0)
(0.00255138 0.0795638 0)
(0.00288207 0.0641785 0)
(0.00312467 0.047512 0)
(0.00310987 0.030463 0)
(0.00275213 0.0137858 0)
(0.00183717 -0.00209459 0)
(0.00135361 -0.017014 0)
(0.00111848 -0.0315599 0)
(-0.000304099 -0.0463896 0)
(-0.000101227 -0.0630717 0)
(-0.0075459 -0.0876471 0)
(-0.00871079 -0.136589 0)
(-0.0216825 -0.203826 0)
(-0.00177957 -0.242347 0)
(0.00391762 0.0678015 0)
(0.00739237 0.103813 0)
(0.0095337 0.111174 0)
(0.0108799 0.109207 0)
(0.0123263 0.102377 0)
(0.0138934 0.0919557 0)
(0.015417 0.0787671 0)
(0.0166507 0.0636462 0)
(0.017364 0.0474645 0)
(0.0173873 0.0310554 0)
(0.0167248 0.0150129 0)
(0.0151333 -0.000667136 0)
(0.0134209 -0.0157584 0)
(0.0115869 -0.0302249 0)
(0.00874886 -0.0447615 0)
(0.00762031 -0.0598863 0)
(-0.00104118 -0.081604 0)
(-0.00150548 -0.129839 0)
(-0.0195014 -0.203904 0)
(0.000596489 -0.254174 0)
(0.00430504 0.0615155 0)
(0.00994738 0.0994439 0)
(0.0142727 0.108354 0)
(0.0177279 0.106766 0)
(0.0210943 0.0999427 0)
(0.024371 0.0896316 0)
(0.0273212 0.0768105 0)
(0.0296395 0.0623278 0)
(0.0310652 0.0469958 0)
(0.0314327 0.0315314 0)
(0.0307321 0.016389 0)
(0.0291513 0.00153117 0)
(0.0261702 -0.0130399 0)
(0.0226705 -0.0271133 0)
(0.0181475 -0.0411248 0)
(0.0146951 -0.0556345 0)
(0.00432237 -0.0758968 0)
(0.00521859 -0.12087 0)
(-0.017463 -0.201472 0)
(0.00319948 -0.264001 0)
(0.00429424 0.0540641 0)
(0.0115041 0.0931552 0)
(0.0176325 0.103437 0)
(0.0231193 0.10231 0)
(0.028475 0.0956644 0)
(0.0335814 0.0856969 0)
(0.0381054 0.0735339 0)
(0.0416843 0.0600119 0)
(0.0440317 0.0458526 0)
(0.0449748 0.0316427 0)
(0.0444672 0.0177357 0)
(0.0426865 0.00417852 0)
(0.0389681 -0.00922509 0)
(0.034149 -0.0223399 0)
(0.0280238 -0.035442 0)
(0.0220924 -0.049175 0)
(0.00933538 -0.0687766 0)
(0.011348 -0.111059 0)
(-0.0152478 -0.19713 0)
(0.00639942 -0.271729 0)
(0.00367009 0.0462463 0)
(0.0117014 0.0855268 0)
(0.0192479 0.0966103 0)
(0.0267517 0.0957859 0)
(0.0342514 0.0893979 0)
(0.0413742 0.0799821 0)
(0.0476536 0.0687555 0)
(0.0526731 0.0565054 0)
(0.0561296 0.0438437 0)
(0.0578439 0.0312371 0)
(0.0577408 0.0189768 0)
(0.0559421 0.00716422 0)
(0.0517732 -0.00458295 0)
(0.0459608 -0.0161967 0)
(0.0384604 -0.0279037 0)
(0.0301553 -0.040503 0)
(0.0154011 -0.0595537 0)
(0.0168035 -0.101655 0)
(-0.012153 -0.190928 0)
(0.0109805 -0.276896 0)
(0.00187713 0.0392814 0)
(0.00986386 0.0771942 0)
(0.018647 0.0879983 0)
(0.0283293 0.0870457 0)
(0.0382548 0.0809256 0)
(0.0476584 0.0722826 0)
(0.0559081 0.0622942 0)
(0.0625489 0.0516415 0)
(0.0672825 0.0408096 0)
(0.0699403 0.0301528 0)
(0.0704467 0.0199029 0)
(0.068843 0.0101803 0)
(0.0649424 0.000741593 0)
(0.0584094 -0.00889591 0)
(0.0498127 -0.0187874 0)
(0.0393721 -0.0299138 0)
(0.0233912 -0.0485103 0)
(0.0230835 -0.0927777 0)
(-0.00664245 -0.184698 0)
(0.017843 -0.278802 0)
(-0.00219826 0.0347512 0)
(0.0046512 0.0690774 0)
(0.0153923 0.0776178 0)
(0.027719 0.0757923 0)
(0.0405003 0.0699328 0)
(0.0524992 0.0623319 0)
(0.062937 0.0539204 0)
(0.0713651 0.0452021 0)
(0.077526 0.036518 0)
(0.0812897 0.0281122 0)
(0.0826117 0.0201489 0)
(0.0815102 0.0127236 0)
(0.0780793 0.00577447 0)
(0.0717665 -0.00131216 0)
(0.0626408 -0.0090849 0)
(0.0507943 -0.0182588 0)
(0.0351211 -0.0365258 0)
(0.0336542 -0.0845724 0)
(0.00372471 -0.177175 0)
(0.0282976 -0.274925 0)
(-0.00861083 0.0397381 0)
(-0.00590345 0.0601033 0)
(0.00950609 0.0649808 0)
(0.025457 0.0617569 0)
(0.0416893 0.0564057 0)
(0.0566226 0.0502784 0)
(0.0694818 0.043884 0)
(0.0799148 0.0374991 0)
(0.0877591 0.0313104 0)
(0.0929662 0.0254568 0)
(0.095566 0.0200396 0)
(0.095637 0.015125 0)
(0.0932768 0.0107324 0)
(0.0885408 0.00675728 0)
(0.0808931 0.00273575 0)
(0.0695088 -0.00334027 0)
(0.0586966 -0.0244203 0)
(0.0576083 -0.0760913 0)
(0.026221 -0.161756 0)
(0.0463059 -0.254699 0)
(-0.0150078 0.0559884 0)
(-0.0168853 0.0452359 0)
(0.00758855 0.041628 0)
(0.0294078 0.0393533 0)
(0.0501058 0.0362515 0)
(0.0688247 0.0326698 0)
(0.0850575 0.0290319 0)
(0.098644 0.0255193 0)
(0.10958 0.0222056 0)
(0.117959 0.0191416 0)
(0.123943 0.0163667 0)
(0.127745 0.0138977 0)
(0.129629 0.011694 0)
(0.129956 0.00947256 0)
(0.12895 0.00582793 0)
(0.124489 -0.00406978 0)
(0.12535 -0.0262348 0)
(0.122483 -0.0652158 0)
(0.0835279 -0.126169 0)
(0.0835028 -0.200122 0)
(0.0657996 0.056417 0)
(0.0806883 0.0405501 0)
(0.117804 0.0305056 0)
(0.151174 0.0253037 0)
(0.180165 0.021998 0)
(0.206155 0.0194745 0)
(0.229601 0.0174213 0)
(0.250612 0.0157036 0)
(0.269314 0.0142352 0)
(0.285879 0.0129626 0)
(0.300497 0.0118515 0)
(0.313362 0.0108745 0)
(0.324618 0.00999047 0)
(0.334181 0.00905955 0)
(0.341471 0.00747207 0)
(0.345178 0.00348088 0)
(0.336198 -0.00443583 0)
(0.305005 -0.0193252 0)
(0.23125 -0.0491686 0)
(0.167746 -0.105237 0)
)
;

boundaryField
{
    movingWall
    {
        type            fixedValue;
        value           uniform (1 0 0);
    }
    fixedWalls
    {
        type            noSlip;
    }
    frontAndBack
    {
        type            empty;
    }
}


// ************************************************************************* //
