/*--------------------------------*- C++ -*----------------------------------*\
  =========                 |
  \\      /  F ield         | OpenFOAM: The Open Source CFD Toolbox
   \\    /   O peration     | Website:  https://openfoam.org
    \\  /    A nd           | Version:  8
     \\/     M anipulation  |
\*---------------------------------------------------------------------------*/
FoamFile
{
    version     2.0;
    format      ascii;
    class       volScalarField;
    location    "1.5";
    object      p;
}
// * * * * * * * * * * * * * * * * * * * * * * * * * * * * * * * * * * * * * //

dimensions      [0 2 -2 0 0 0 0];

internalField   nonuniform List<scalar> 
400
(
1.35165e-08
-1.37673e-05
-3.07468e-05
-5.11107e-05
-7.54585e-05
-0.000102319
-0.000127544
-0.000144195
-0.000142502
-0.000107686
-1.31479e-05
0.00018999
0.000581647
0.00126899
0.002346
0.00380171
0.00542865
0.00682827
0.00754173
0.00748275
2.60698e-05
1.26908e-05
-2.41759e-06
-1.99463e-05
-4.25983e-05
-7.14879e-05
-0.000106188
-0.000143992
-0.000178461
-0.000196008
-0.000168578
-4.30508e-05
0.000266423
0.000870263
0.00185899
0.00322893
0.00482269
0.00624609
0.00703767
0.0070929
1.57233e-05
2.93378e-06
-1.22991e-05
-3.12109e-05
-5.88906e-05
-0.00010017
-0.000160947
-0.000247329
-0.000361856
-0.000495551
-0.000616392
-0.000658825
-0.000521339
-8.0348e-05
0.000770956
0.00205616
0.00363597
0.00515106
0.00611338
0.00630991
-4.8089e-05
-6.25108e-05
-8.25918e-05
-0.000110496
-0.000154467
-0.000224582
-0.000334722
-0.000500779
-0.00073385
-0.0010279
-0.00134497
-0.00160567
-0.00169275
-0.00146794
-0.000802706
0.000357283
0.00190765
0.00352792
0.00468919
0.00505324
-0.000176926
-0.000195296
-0.000224934
-0.000269157
-0.000339367
-0.000451063
-0.000626107
-0.000889813
-0.00126136
-0.00173772
-0.00227626
-0.00278545
-0.00313206
-0.00315958
-0.00271508
-0.00171642
-0.000233036
0.0014599
0.00279335
0.0033472
-0.000368732
-0.000392714
-0.000435121
-0.00050054
-0.000602956
-0.000762482
-0.00100778
-0.0013724
-0.00188312
-0.0025409
-0.00330087
-0.00406158
-0.00467283
-0.00495661
-0.00474042
-0.00392797
-0.00256148
-0.000857341
0.000583767
0.00132854
-0.000610435
-0.000640662
-0.000696876
-0.000784859
-0.000920248
-0.00112638
-0.00143675
-0.00189105
-0.00252245
-0.00333635
-0.00428826
-0.00527036
-0.00611685
-0.00662737
-0.00661796
-0.00599669
-0.00479652
-0.00315766
-0.00170032
-0.000785156
-0.000883548
-0.000919437
-0.000988067
-0.00109618
-0.00125993
-0.00150414
-0.00186459
-0.00238424
-0.0031003
-0.00402213
-0.00510805
-0.00624905
-0.00726959
-0.00794988
-0.0081008
-0.00765254
-0.00665494
-0.00516032
-0.00378972
-0.00274724
-0.0011689
-0.00120858
-0.0012859
-0.00140825
-0.00159122
-0.00185924
-0.00224754
-0.00279907
-0.00355169
-0.00451684
-0.0056573
-0.00686926
-0.0079783
-0.00875468
-0.00900662
-0.0086973
-0.00791748
-0.00663383
-0.00544327
-0.0043332
-0.00144986
-0.00149025
-0.0015706
-0.00169879
-0.00188898
-0.00216361
-0.00255439
-0.00310156
-0.00383916
-0.00477696
-0.00588288
-0.00706506
-0.00816389
-0.00895665
-0.00925608
-0.00904064
-0.0084812
-0.0074454
-0.00649879
-0.00537945
-0.0017143
-0.00175115
-0.00182754
-0.00195179
-0.00213648
-0.00240128
-0.00276985
-0.00328129
-0.00395955
-0.00481305
-0.00581542
-0.00688649
-0.00788334
-0.00860014
-0.00888463
-0.00870795
-0.0083609
-0.00757285
-0.00690239
-0.00580851
-0.00195548
-0.00198301
-0.0020478
-0.00215786
-0.00232522
-0.00256967
-0.00288846
-0.00334588
-0.00393929
-0.00467866
-0.00554176
-0.00645604
-0.00729277
-0.00787207
-0.00808524
-0.00793144
-0.00769417
-0.00709472
-0.00673286
-0.00563695
-0.00217074
-0.00218336
-0.00222775
-0.00231297
-0.00244925
-0.00265259
-0.00293294
-0.0033173
-0.00381721
-0.00443672
-0.00515407
-0.00590442
-0.00657656
-0.00702433
-0.00716083
-0.00699286
-0.00678204
-0.0061863
-0.00621745
-0.00493816
-0.00236278
-0.00235371
-0.00236776
-0.00241777
-0.0025146
-0.00267261
-0.00290141
-0.00321645
-0.00362841
-0.00413807
-0.00472411
-0.00532965
-0.00586035
-0.00619864
-0.00627042
-0.00607822
-0.00587091
-0.005082
-0.00558797
-0.00374209
-0.00254091
-0.00249876
-0.00247076
-0.00247766
-0.00252481
-0.0026366
-0.00281306
-0.00306585
-0.00340237
-0.00382101
-0.00430147
-0.00479414
-0.00521855
-0.00547774
-0.00550389
-0.00529371
-0.0050669
-0.00410028
-0.00482413
-0.00197895
-0.00272402
-0.00262753
-0.00253958
-0.00248856
-0.00249298
-0.00255585
-0.00268361
-0.00288445
-0.00316202
-0.00351283
-0.003918
-0.00433401
-0.00469074
-0.00490405
-0.00490881
-0.00470264
-0.00443998
-0.00333845
-0.00382921
0.00058864
-0.00295561
-0.00275589
-0.00257896
-0.00245958
-0.00241675
-0.00243822
-0.00252547
-0.00268717
-0.00292378
-0.00323071
-0.00359073
-0.00396523
-0.00429139
-0.00449243
-0.00450565
-0.00432708
-0.00398515
-0.00266621
-0.00190477
0.00542823
-0.00334935
-0.00290961
-0.00258836
-0.00239099
-0.002303
-0.00229324
-0.00235011
-0.00248488
-0.00269616
-0.00297929
-0.003319
-0.00368052
-0.00400558
-0.0042192
-0.00424727
-0.00405096
-0.0035452
-0.00138188
0.00293631
0.0171148
-0.00449779
-0.00319146
-0.00267144
-0.00238143
-0.00222304
-0.00218223
-0.0022244
-0.0023462
-0.0025464
-0.002822
-0.00316003
-0.00352888
-0.00387576
-0.00414022
-0.00430186
-0.00446093
-0.00333406
0.00206829
0.0137807
0.0392207
-0.00771991
-0.00246185
-0.00145604
-0.00148854
-0.00151802
-0.00156178
-0.00167023
-0.001848
-0.00209408
-0.00240947
-0.0027859
-0.00319421
-0.00357791
-0.00384348
-0.00375141
-0.00242297
0.00160137
0.0114256
0.030114
0.0624074
)
;

boundaryField
{
    movingWall
    {
        type            zeroGradient;
    }
    fixedWalls
    {
        type            zeroGradient;
    }
    frontAndBack
    {
        type            empty;
    }
}


// ************************************************************************* //
