/*--------------------------------*- C++ -*----------------------------------*\
  =========                 |
  \\      /  F ield         | OpenFOAM: The Open Source CFD Toolbox
   \\    /   O peration     | Website:  https://openfoam.org
    \\  /    A nd           | Version:  8
     \\/     M anipulation  |
\*---------------------------------------------------------------------------*/
FoamFile
{
    version     2.0;
    format      ascii;
    class       surfaceScalarField;
    location    "1.5";
    object      phi;
}
// * * * * * * * * * * * * * * * * * * * * * * * * * * * * * * * * * * * * * //

dimensions      [0 3 -1 0 0 0 0];

internalField   nonuniform List<scalar> 
760
(
-4.28162e-08
4.28149e-08
-1.25757e-07
8.29403e-08
-2.26672e-07
1.00916e-07
-3.43822e-07
1.1715e-07
-4.85497e-07
1.41675e-07
-6.65046e-07
1.79549e-07
-8.98376e-07
2.3333e-07
-1.19946e-06
3.01083e-07
-1.57331e-06
3.73847e-07
-2.00893e-06
4.35628e-07
-2.4759e-06
4.6697e-07
-2.92601e-06
4.50108e-07
-3.29861e-06
3.72604e-07
-3.52673e-06
2.28113e-07
-3.54307e-06
1.63464e-08
-3.26257e-06
-2.80501e-07
-2.63972e-06
-6.22855e-07
-1.70791e-06
-9.31813e-07
-6.59943e-07
-1.04796e-06
-6.59943e-07
-1.29347e-07
1.72162e-07
-3.35016e-07
2.88609e-07
-5.70433e-07
3.36332e-07
-8.33896e-07
3.80613e-07
-1.135e-06
4.42779e-07
-1.48531e-06
5.29856e-07
-1.89349e-06
6.4151e-07
-2.36016e-06
7.6776e-07
-2.87333e-06
8.87015e-07
-3.4062e-06
9.68497e-07
-3.91788e-06
9.78649e-07
-4.35594e-06
8.88169e-07
-4.65994e-06
6.76602e-07
-4.76473e-06
3.32907e-07
-4.60135e-06
-1.47038e-07
-4.13252e-06
-7.4933e-07
-3.34522e-06
-1.41016e-06
-2.27109e-06
-2.00594e-06
-1.03228e-06
-2.28678e-06
-1.69222e-06
-1.79314e-07
3.51477e-07
-4.45432e-07
5.54727e-07
-7.42817e-07
6.33718e-07
-1.06969e-06
7.07486e-07
-1.43382e-06
8.06909e-07
-1.84294e-06
9.38979e-07
-2.30027e-06
1.09884e-06
-2.80037e-06
1.26786e-06
-3.32618e-06
1.41283e-06
-3.84832e-06
1.49063e-06
-4.32653e-06
1.45687e-06
-4.71262e-06
1.27425e-06
-4.95386e-06
9.17845e-07
-4.99682e-06
3.75865e-07
-4.79476e-06
-3.49101e-07
-4.31823e-06
-1.22586e-06
-3.55194e-06
-2.17644e-06
-2.50413e-06
-3.05375e-06
-1.2395e-06
-3.5514e-06
-2.93172e-06
-1.96327e-07
5.47804e-07
-4.81926e-07
8.40326e-07
-7.97679e-07
9.4947e-07
-1.14024e-06
1.05004e-06
-1.51558e-06
1.18225e-06
-1.92932e-06
1.35272e-06
-2.38263e-06
1.55214e-06
-2.86878e-06
1.75402e-06
-3.37091e-06
1.91496e-06
-3.86163e-06
1.98135e-06
-4.30443e-06
1.89966e-06
-4.65604e-06
1.62586e-06
-4.86962e-06
1.13143e-06
-4.89889e-06
4.05133e-07
-4.70752e-06
-5.40471e-07
-4.27156e-06
-1.66182e-06
-3.57153e-06
-2.87647e-06
-2.59076e-06
-4.03452e-06
-1.34199e-06
-4.80017e-06
-4.27371e-06
-1.89874e-07
7.37678e-07
-4.68853e-07
1.11931e-06
-7.75776e-07
1.25639e-06
-1.10476e-06
1.37903e-06
-1.45993e-06
1.53742e-06
-1.84559e-06
1.73838e-06
-2.26259e-06
1.96914e-06
-2.70538e-06
2.19681e-06
-3.15987e-06
2.36945e-06
-3.60277e-06
2.42425e-06
-4.00241e-06
2.29931e-06
-4.32055e-06
1.94401e-06
-4.51531e-06
1.32619e-06
-4.54622e-06
4.36035e-07
-4.38535e-06
-7.01341e-07
-4.01596e-06
-2.03121e-06
-3.41691e-06
-3.47552e-06
-2.54446e-06
-4.90696e-06
-1.36152e-06
-5.98312e-06
-5.63523e-06
-1.6802e-07
9.05697e-07
-4.23275e-07
1.37456e-06
-7.03578e-07
1.5367e-06
-9.9977e-07
1.67522e-06
-1.31366e-06
1.85131e-06
-1.64827e-06
2.07299e-06
-2.00468e-06
2.32555e-06
-2.37963e-06
2.57176e-06
-2.76345e-06
2.75326e-06
-3.13865e-06
2.79945e-06
-3.47996e-06
2.64062e-06
-3.75545e-06
2.21949e-06
-3.92917e-06
1.49991e-06
-3.96699e-06
4.73857e-07
-3.84836e-06
-8.19977e-07
-3.56616e-06
-2.31341e-06
-3.10127e-06
-3.94041e-06
-2.38126e-06
-5.62698e-06
-1.31669e-06
-7.04769e-06
-6.95191e-06
-1.36989e-07
1.04269e-06
-3.57712e-07
1.59528e-06
-6.001e-07
1.77908e-06
-8.51189e-07
1.92631e-06
-1.10999e-06
2.11011e-06
-1.37783e-06
2.34083e-06
-1.65585e-06
2.60357e-06
-1.94346e-06
2.85937e-06
-2.23628e-06
3.04609e-06
-2.52412e-06
3.08729e-06
-2.7899e-06
2.90639e-06
-3.01003e-06
2.43962e-06
-3.15644e-06
1.64632e-06
-3.20196e-06
5.19375e-07
-3.13185e-06
-8.90085e-07
-2.9513e-06
-2.49396e-06
-2.64933e-06
-4.24238e-06
-2.12214e-06
-6.15417e-06
-1.22135e-06
-7.94848e-06
-8.17326e-06
-1.01873e-07
1.14456e-06
-2.82263e-07
1.77567e-06
-4.80647e-07
1.97747e-06
-6.80129e-07
2.12579e-06
-8.76639e-07
2.30663e-06
-1.0694e-06
2.53359e-06
-1.25909e-06
2.79326e-06
-1.44732e-06
3.04759e-06
-1.63501e-06
3.23378e-06
-1.81989e-06
3.27217e-06
-1.99439e-06
3.0809e-06
-2.14537e-06
2.5906e-06
-2.2552e-06
1.75614e-06
-2.30517e-06
5.69346e-07
-2.28453e-06
-9.10726e-07
-2.21379e-06
-2.5647e-06
-2.09573e-06
-4.36044e-06
-1.79246e-06
-6.45744e-06
-1.09017e-06
-8.65077e-06
-9.26344e-06
-6.70983e-08
1.21166e-06
-2.05601e-07
1.91418e-06
-3.58258e-07
2.13013e-06
-5.04635e-07
2.27217e-06
-6.37726e-07
2.43972e-06
-7.54549e-07
2.65041e-06
-8.5476e-07
2.89347e-06
-9.41184e-07
3.13401e-06
-1.01901e-06
3.31161e-06
-1.09315e-06
3.34631e-06
-1.1654e-06
3.15314e-06
-1.23394e-06
2.65915e-06
-1.29407e-06
1.81627e-06
-1.33987e-06
6.15156e-07
-1.36516e-06
-8.85444e-07
-1.40796e-06
-2.52189e-06
-1.48406e-06
-4.28434e-06
-1.42193e-06
-6.51957e-06
-9.39106e-07
-9.13359e-06
-1.02025e-05
-3.66064e-08
1.24826e-06
-1.35318e-07
2.01289e-06
-2.44042e-07
2.23885e-06
-3.39758e-07
2.36789e-06
-4.13173e-07
2.51313e-06
-4.59539e-07
2.69678e-06
-4.77292e-07
2.91122e-06
-4.69657e-07
3.12638e-06
-4.44469e-07
3.28642e-06
-4.12095e-07
3.31394e-06
-3.81616e-07
3.12267e-06
-3.60953e-07
2.63849e-06
-3.57006e-07
1.81232e-06
-3.79519e-07
6.37668e-07
-4.46749e-07
-8.18213e-07
-5.98251e-07
-2.37039e-06
-8.65041e-07
-4.01755e-06
-1.04349e-06
-6.34112e-06
-7.83399e-07
-9.39369e-06
-1.09859e-05
-1.40241e-08
1.26229e-06
-7.80824e-08
2.07695e-06
-1.47241e-07
2.30801e-06
-1.97296e-07
2.41794e-06
-2.17754e-07
2.53359e-06
-2.03218e-07
2.68225e-06
-1.51039e-07
2.85904e-06
-6.48565e-08
3.0402e-06
4.72629e-08
3.1743e-06
1.72325e-07
3.18888e-06
2.95187e-07
2.9998e-06
3.9969e-07
2.53398e-06
4.68033e-07
1.74398e-06
4.70226e-07
6.35475e-07
3.66497e-07
-7.14485e-07
1.15784e-07
-2.11967e-06
-2.88373e-07
-3.6134e-06
-6.88704e-07
-5.94079e-06
-6.36158e-07
-9.44623e-06
-1.16221e-05
-2.36794e-09
1.26466e-06
-3.98437e-08
2.11442e-06
-7.54689e-08
2.34363e-06
-8.59264e-08
2.4284e-06
-6.07696e-08
2.50843e-06
6.11119e-09
2.61536e-06
1.14292e-07
2.75086e-06
2.63126e-07
2.89136e-06
4.44238e-07
2.99319e-06
6.42249e-07
2.99087e-06
8.35275e-07
2.80678e-06
9.97363e-07
2.3719e-06
1.09638e-06
1.64496e-06
1.09303e-06
6.38834e-07
9.40391e-07
-5.61849e-07
6.42122e-07
-1.82141e-06
1.7923e-07
-3.1505e-06
-3.8215e-07
-5.37941e-06
-5.08104e-07
-9.32028e-06
-1.21302e-05
-5.46752e-09
1.27012e-06
-2.6684e-08
2.13564e-06
-3.53715e-08
2.35232e-06
-1.21133e-08
2.40514e-06
5.17645e-08
2.44455e-06
1.59e-07
2.50813e-06
3.13091e-07
2.59677e-06
5.1081e-07
2.69364e-06
7.42602e-07
2.76139e-06
9.90886e-07
2.74258e-06
1.2291e-06
2.56857e-06
1.42295e-06
2.17805e-06
1.53018e-06
1.53773e-06
1.50269e-06
6.66317e-07
1.3022e-06
-3.61353e-07
9.39958e-07
-1.45917e-06
4.4961e-07
-2.66016e-06
-1.51965e-07
-4.77783e-06
-4.06424e-07
-9.06582e-06
-1.25366e-05
-2.88715e-08
1.29899e-06
-4.57576e-08
2.15253e-06
-3.35381e-08
2.3401e-06
1.92069e-08
2.3524e-06
1.16376e-07
2.34739e-06
2.6013e-07
2.36438e-06
4.50563e-07
2.40634e-06
6.84375e-07
2.45983e-06
9.51487e-07
2.49428e-06
1.23242e-06
2.46165e-06
1.49714e-06
2.30385e-06
1.70596e-06
1.96923e-06
1.81127e-06
1.43242e-06
1.76374e-06
7.13846e-07
1.52597e-06
-1.23578e-07
1.1148e-06
-1.048e-06
5.81401e-07
-2.12675e-06
-1.10238e-08
-4.18541e-06
-3.16925e-07
-8.75992e-06
-1.28536e-05
-8.06654e-08
1.37966e-06
-1.06391e-07
2.17825e-06
-7.71807e-08
2.31089e-06
3.79356e-09
2.27142e-06
1.32839e-07
2.21834e-06
3.09332e-07
2.18788e-06
5.30737e-07
2.18493e-06
7.92636e-07
2.19793e-06
1.08457e-06
2.20235e-06
1.38634e-06
2.15988e-06
1.66625e-06
2.02393e-06
1.88207e-06
1.75341e-06
1.98462e-06
1.32986e-06
1.92648e-06
7.7199e-07
1.67427e-06
1.28635e-07
1.23184e-06
-6.05573e-07
6.68846e-07
-1.56376e-06
1.5628e-07
-3.67284e-06
-1.73889e-07
-8.42975e-06
-1.30274e-05
-1.76941e-07
1.5566e-06
-2.22661e-07
2.22397e-06
-1.74253e-07
2.26249e-06
-6.1821e-08
2.15899e-06
1.01481e-07
2.05504e-06
3.11168e-07
1.9782e-06
5.61745e-07
1.93435e-06
8.47924e-07
1.91175e-06
1.15936e-06
1.89091e-06
1.47635e-06
1.8429e-06
1.76738e-06
1.7329e-06
1.99028e-06
1.53051e-06
2.09707e-06
1.22306e-06
2.04356e-06
8.25503e-07
1.79849e-06
3.73705e-07
1.34926e-06
-1.56339e-07
7.96529e-07
-1.01104e-06
3.92044e-07
-3.26835e-06
7.78487e-08
-8.11555e-06
-1.29496e-05
-3.48263e-07
1.90486e-06
-4.14337e-07
2.29004e-06
-3.28123e-07
2.17627e-06
-1.70052e-07
2.00092e-06
3.56377e-08
1.84935e-06
2.83243e-07
1.73059e-06
5.64988e-07
1.65261e-06
8.75611e-07
1.60113e-06
1.2062e-06
1.56032e-06
1.53887e-06
1.51023e-06
1.84414e-06
1.42763e-06
2.08225e-06
1.2924e-06
2.20878e-06
1.09653e-06
2.18461e-06
8.49677e-07
1.98519e-06
5.7312e-07
1.56126e-06
2.67594e-07
1.10581e-06
-5.55593e-07
8.49677e-07
-3.01222e-06
4.1548e-07
-7.68136e-06
-1.25341e-05
-6.38793e-07
2.54366e-06
-6.7427e-07
2.32552e-06
-4.83314e-07
1.98531e-06
-2.38963e-07
1.75657e-06
3.76625e-08
1.57272e-06
3.40565e-07
1.42769e-06
6.64171e-07
1.329e-06
1.0075e-06
1.2578e-06
1.36522e-06
1.2026e-06
1.72348e-06
1.15197e-06
2.05758e-06
1.09353e-06
2.33337e-06
1.01661e-06
2.51239e-06
9.17509e-07
2.55834e-06
8.03729e-07
2.44574e-06
6.85725e-07
2.24346e-06
4.69868e-07
2.16072e-06
-4.72851e-07
1.95891e-06
-2.8104e-06
1.13804e-06
-6.86049e-06
-1.13961e-05
-8.7286e-07
3.41652e-06
-5.69968e-07
2.02263e-06
-4.99709e-08
1.46532e-06
4.52779e-07
1.25382e-06
9.17866e-07
1.10764e-06
1.36207e-06
9.83483e-07
1.80106e-06
8.90018e-07
2.23973e-06
8.19129e-07
2.67915e-06
7.63177e-07
3.11449e-06
7.16634e-07
3.53322e-06
6.74796e-07
3.91641e-06
6.33424e-07
4.24493e-06
5.88983e-07
4.51477e-06
5.33894e-07
4.77708e-06
4.23415e-07
5.13056e-06
1.1639e-07
5.44253e-06
-7.84822e-07
4.988e-06
-2.35588e-06
3.02745e-06
-4.89994e-06
-8.36863e-06
3.41652e-06
5.43915e-06
6.90446e-06
8.15828e-06
9.26592e-06
1.02494e-05
1.11394e-05
1.19585e-05
1.27217e-05
1.34384e-05
1.41132e-05
1.47466e-05
1.53356e-05
1.58695e-05
1.62929e-05
1.64093e-05
1.56244e-05
1.32686e-05
8.36863e-06
)
;

boundaryField
{
    movingWall
    {
        type            calculated;
        value           uniform 0;
    }
    fixedWalls
    {
        type            calculated;
        value           uniform 0;
    }
    frontAndBack
    {
        type            empty;
        value           nonuniform List<scalar> 0();
    }
}


// ************************************************************************* //
