/*--------------------------------*- C++ -*----------------------------------*\
  =========                 |
  \\      /  F ield         | OpenFOAM: The Open Source CFD Toolbox
   \\    /   O peration     | Website:  https://openfoam.org
    \\  /    A nd           | Version:  8
     \\/     M anipulation  |
\*---------------------------------------------------------------------------*/
FoamFile
{
    version     2.0;
    format      ascii;
    class       volVectorField;
    location    "1.5";
    object      U;
}
// * * * * * * * * * * * * * * * * * * * * * * * * * * * * * * * * * * * * * //

dimensions      [0 1 -1 0 0 0 0];

internalField   nonuniform List<vector> 
400
(
(-0.000205841 5.99936e-05 0)
(-0.00158407 0.00021937 0)
(-0.00345108 0.000309586 0)
(-0.00561668 0.000390283 0)
(-0.00816 0.00053494 0)
(-0.0113084 0.000802441 0)
(-0.0153682 0.00125392 0)
(-0.0206686 0.00192973 0)
(-0.027447 0.00280129 0)
(-0.0356842 0.00373221 0)
(-0.044972 0.004495 0)
(-0.05449 0.00484672 0)
(-0.0630758 0.0046053 0)
(-0.0693148 0.00366219 0)
(-0.0717018 0.00190782 0)
(-0.0690612 -0.000911669 0)
(-0.0596445 -0.00466522 0)
(-0.0438054 -0.00825065 0)
(-0.0238843 -0.00951513 0)
(-0.00515271 -0.00455361 0)
(-0.000804216 0.00186054 0)
(-0.00448749 0.00337573 0)
(-0.00891645 0.00403123 0)
(-0.0138813 0.00462902 0)
(-0.0194748 0.0055022 0)
(-0.025939 0.00679075 0)
(-0.0335033 0.0085279 0)
(-0.0422889 0.010589 0)
(-0.0522056 0.0126448 0)
(-0.0628747 0.0141984 0)
(-0.0736112 0.0147005 0)
(-0.0834538 0.0136772 0)
(-0.0912154 0.0108057 0)
(-0.0955417 0.00591349 0)
(-0.0950396 -0.0010883 0)
(-0.0883694 -0.0101577 0)
(-0.0754075 -0.0202758 0)
(-0.0565679 -0.0292611 0)
(-0.0337291 -0.0328052 0)
(-0.0100233 -0.0217404 0)
(-0.00119315 0.00516353 0)
(-0.0060883 0.00833857 0)
(-0.0117282 0.009602 0)
(-0.0179483 0.0107848 0)
(-0.0248131 0.0124102 0)
(-0.0325117 0.0146199 0)
(-0.041181 0.0173619 0)
(-0.0508251 0.0203477 0)
(-0.0612352 0.0230241 0)
(-0.0719441 0.0246456 0)
(-0.0822352 0.0244268 0)
(-0.0911911 0.0216975 0)
(-0.0977567 0.0159955 0)
(-0.1008 0.00707877 0)
(-0.0991796 -0.00508564 0)
(-0.0920896 -0.0200315 0)
(-0.0793743 -0.0362216 0)
(-0.0610349 -0.0508611 0)
(-0.0383144 -0.0582442 0)
(-0.0132281 -0.0453663 0)
(-0.00132018 0.00898842 0)
(-0.00662458 0.0139389 0)
(-0.0126447 0.0158248 0)
(-0.0192082 0.0175822 0)
(-0.0263453 0.0199187 0)
(-0.0342078 0.0229672 0)
(-0.0428909 0.0265812 0)
(-0.052365 0.0303039 0)
(-0.0624069 0.0333638 0)
(-0.0725651 0.0347892 0)
(-0.0821739 0.0335974 0)
(-0.0904026 0.0289708 0)
(-0.096322 0.0203687 0)
(-0.098951 0.00756711 0)
(-0.0972394 -0.00929978 0)
(-0.0906863 -0.029469 0)
(-0.079107 -0.0512316 0)
(-0.0621355 -0.0715428 0)
(-0.0404263 -0.0838854 0)
(-0.0146262 -0.0719575 0)
(-0.00123922 0.0128867 0)
(-0.00643005 0.0196333 0)
(-0.0123082 0.0221077 0)
(-0.0186527 0.0243635 0)
(-0.0254544 0.0273004 0)
(-0.0328343 0.031048 0)
(-0.040871 0.035378 0)
(-0.0495438 0.0396867 0)
(-0.0586697 0.0430113 0)
(-0.0678645 0.0441806 0)
(-0.0765499 0.0420369 0)
(-0.0839946 0.0356327 0)
(-0.0893808 0.0243615 0)
(-0.0918393 0.00804019 0)
(-0.0903796 -0.0129993 0)
(-0.0847847 -0.0377505 0)
(-0.0749442 -0.0645033 0)
(-0.0601133 -0.0904126 0)
(-0.0405014 -0.108608 0)
(-0.014619 -0.099503 0)
(-0.00102442 0.0164972 0)
(-0.00575537 0.0250177 0)
(-0.011151 0.028026 0)
(-0.0169097 0.0306678 0)
(-0.0229749 0.0340524 0)
(-0.029431 0.0383228 0)
(-0.0363432 0.0431948 0)
(-0.0437175 0.0479538 0)
(-0.0514414 0.051483 0)
(-0.059236 0.0524382 0)
(-0.066646 0.0494977 0)
(-0.0730674 0.041582 0)
(-0.0778065 0.0280125 0)
(-0.0801028 0.0086577 0)
(-0.0790594 -0.0159038 0)
(-0.0747201 -0.0444159 0)
(-0.0671782 -0.0753551 0)
(-0.0552299 -0.106603 0)
(-0.0389213 -0.131377 0)
(-0.0135992 -0.126607 0)
(-0.000736792 0.0195718 0)
(-0.00478889 0.0298116 0)
(-0.00948694 0.0332887 0)
(-0.0144271 0.0361797 0)
(-0.0194979 0.0398246 0)
(-0.0247368 0.0444019 0)
(-0.0301884 0.0496059 0)
(-0.0358852 0.0546596 0)
(-0.0417999 0.0583405 0)
(-0.0477857 0.0591635 0)
(-0.0535457 0.0556561 0)
(-0.0586448 0.0466035 0)
(-0.0625448 0.0312438 0)
(-0.0645986 0.00948723 0)
(-0.0640351 -0.0178117 0)
(-0.061118 -0.0490851 0)
(-0.0563832 -0.0831348 0)
(-0.0479104 -0.119236 0)
(-0.0361041 -0.151213 0)
(-0.0118725 -0.152162 0)
(-0.00042664 0.0219748 0)
(-0.00368358 0.0338466 0)
(-0.00756787 0.0377207 0)
(-0.0115658 0.0407103 0)
(-0.0155082 0.0444048 0)
(-0.0193784 0.0490403 0)
(-0.023189 0.0543257 0)
(-0.0269873 0.0594772 0)
(-0.0308259 0.0632263 0)
(-0.0346978 0.0639932 0)
(-0.0384858 0.0601779 0)
(-0.0419606 0.0504373 0)
(-0.0447897 0.0339122 0)
(-0.0464565 0.0105132 0)
(-0.0463303 -0.018638 0)
(-0.0448531 -0.0515167 0)
(-0.0433971 -0.087311 0)
(-0.0387273 -0.127574 0)
(-0.0324836 -0.167308 0)
(-0.0096698 -0.175331 0)
(-0.000137044 0.0236668 0)
(-0.00257187 0.0370476 0)
(-0.0056087 0.0412437 0)
(-0.00863231 0.0441799 0)
(-0.0114217 0.04771 0)
(-0.0139065 0.0521448 0)
(-0.0160611 0.0572381 0)
(-0.0179286 0.0622511 0)
(-0.0196192 0.0659343 0)
(-0.0212489 0.0666723 0)
(-0.0228682 0.062779 0)
(-0.0244576 0.0528127 0)
(-0.0259381 0.0358205 0)
(-0.0269872 0.0116475 0)
(-0.0271573 -0.0183972 0)
(-0.0270196 -0.0516368 0)
(-0.0292918 -0.0875605 0)
(-0.0283954 -0.131132 0)
(-0.0285102 -0.17911 0)
(-0.00718382 -0.195582 0)
(9.49991e-05 0.0246926 0)
(-0.00157169 0.0394189 0)
(-0.00379491 0.0438589 0)
(-0.00588474 0.0465998 0)
(-0.00758222 0.0497691 0)
(-0.00877543 0.0537652 0)
(-0.00940411 0.058403 0)
(-0.00949542 0.0630293 0)
(-0.00918826 0.0664724 0)
(-0.00868417 0.0671586 0)
(-0.00815529 0.0633826 0)
(-0.00773773 0.053645 0)
(-0.00759137 0.036922 0)
(-0.00765159 0.0129117 0)
(-0.00799527 -0.0171354 0)
(-0.0090561 -0.0493925 0)
(-0.0153003 -0.0838691 0)
(-0.0177284 -0.129777 0)
(-0.0246196 -0.186379 0)
(-0.00458073 -0.212688 0)
(0.000237388 0.025173 0)
(-0.000790152 0.0410321 0)
(-0.00228549 0.0456289 0)
(-0.0035315 0.0480474 0)
(-0.00425156 0.0506921 0)
(-0.00431527 0.054058 0)
(-0.00364363 0.058014 0)
(-0.0022492 0.0620367 0)
(-0.000264065 0.0650773 0)
(0.00210373 0.0656196 0)
(0.00454038 0.0619128 0)
(0.00677039 0.052497 0)
(0.00843236 0.0364236 0)
(0.00946015 0.0136145 0)
(0.00892833 -0.0146144 0)
(0.00680889 -0.0442458 0)
(-0.00273039 -0.076457 0)
(-0.00754007 -0.123708 0)
(-0.0211666 -0.189217 0)
(-0.00198114 -0.226718 0)
(0.000258043 0.0252951 0)
(-0.000330001 0.0420192 0)
(-0.00121793 0.0466598 0)
(-0.00173595 0.0486372 0)
(-0.00160996 0.0506227 0)
(-0.000735059 0.0532037 0)
(0.00100924 0.0563744 0)
(0.00363128 0.0596543 0)
(0.00695444 0.0620723 0)
(0.0107468 0.0622488 0)
(0.0146454 0.0585661 0)
(0.0181988 0.0495934 0)
(0.0208256 0.0344391 0)
(0.0221859 0.0131772 0)
(0.0212599 -0.0124712 0)
(0.0177546 -0.0389668 0)
(0.006844 -0.0666737 0)
(0.00142572 -0.113363 0)
(-0.0183842 -0.188125 0)
(0.000565709 -0.238021 0)
(0.000123265 0.0253128 0)
(-0.0002976 0.0425649 0)
(-0.000722218 0.0470814 0)
(-0.000634613 0.0484933 0)
(0.000206784 0.0497168 0)
(0.00191498 0.0514535 0)
(0.00453841 0.0537211 0)
(0.0080795 0.0561234 0)
(0.0124032 0.0578467 0)
(0.0172301 0.0576534 0)
(0.0221311 0.0540792 0)
(0.0265209 0.0458144 0)
(0.0296462 0.0321107 0)
(0.0308619 0.013264 0)
(0.0290833 -0.00913591 0)
(0.0244006 -0.0326723 0)
(0.0118304 -0.0579829 0)
(0.00833604 -0.100944 0)
(-0.016372 -0.184135 0)
(0.00314424 -0.247123 0)
(-0.000220151 0.0255732 0)
(-0.000825743 0.0428959 0)
(-0.000937092 0.0470263 0)
(-0.000344209 0.0477239 0)
(0.00114519 0.0480996 0)
(0.00356709 0.0489256 0)
(0.00691951 0.0502434 0)
(0.0111808 0.0517523 0)
(0.0162254 0.0527764 0)
(0.0217566 0.052259 0)
(0.0272899 0.0489283 0)
(0.0321472 0.0416507 0)
(0.0354686 0.0298456 0)
(0.0364091 0.013922 0)
(0.0339743 -0.00485202 0)
(0.0284686 -0.024998 0)
(0.013947 -0.0477831 0)
(0.0129582 -0.0888366 0)
(-0.0149582 -0.178542 0)
(0.00614432 -0.254456 0)
(-0.000888152 0.0265561 0)
(-0.00211804 0.0432736 0)
(-0.00203141 0.0466042 0)
(-0.000973031 0.0463897 0)
(0.00113622 0.0458338 0)
(0.00422429 0.0457164 0)
(0.00821652 0.0461045 0)
(0.0130702 0.0467579 0)
(0.0186486 0.0471312 0)
(0.0246524 0.0463631 0)
(0.0305721 0.0434047 0)
(0.0356815 0.0373273 0)
(0.0390731 0.0277005 0)
(0.0398096 0.0149349 0)
(0.0371249 0.000109019 0)
(0.0311183 -0.0164587 0)
(0.0153714 -0.0368189 0)
(0.015989 -0.0781285 0)
(-0.0133354 -0.172073 0)
(0.0103502 -0.260088 0)
(-0.00213121 0.0289861 0)
(-0.00451922 0.0439712 0)
(-0.00423072 0.0458543 0)
(-0.00261522 0.0444839 0)
(0.000147577 0.0429259 0)
(0.00394612 0.041863 0)
(0.00855964 0.0413811 0)
(0.0139488 0.0412606 0)
(0.0199672 0.0410695 0)
(0.0263243 0.0401399 0)
(0.0325175 0.0376591 0)
(0.0378178 0.0329131 0)
(0.0413241 0.0255972 0)
(0.0421077 0.0160595 0)
(0.039522 0.00515675 0)
(0.0333591 -0.00758187 0)
(0.0174507 -0.0257322 0)
(0.0194319 -0.069369 0)
(-0.00978577 -0.166871 0)
(0.0166801 -0.263532 0)
(-0.00445453 0.0340603 0)
(-0.00861912 0.0451634 0)
(-0.0077603 0.0446372 0)
(-0.00524085 0.04188 0)
(-0.00162763 0.0393173 0)
(0.00304753 0.037341 0)
(0.00834354 0.0360801 0)
(0.0142816 0.0352929 0)
(0.0207325 0.0346341 0)
(0.0274344 0.0336193 0)
(0.0339219 0.0316709 0)
(0.0395075 0.0282853 0)
(0.0433456 0.0232581 0)
(0.0445898 0.0168297 0)
(0.0426803 0.00951446 0)
(0.0368503 0.000890901 0)
(0.0221408 -0.0156011 0)
(0.0264009 -0.0641794 0)
(-0.0010586 -0.162588 0)
(0.0266373 -0.262095 0)
(-0.00873238 0.0449046 0)
(-0.0149649 0.0470522 0)
(-0.011988 0.0430633 0)
(-0.00744489 0.0388237 0)
(-0.00228421 0.0352052 0)
(0.00374534 0.0323568 0)
(0.00995762 0.0305112 0)
(0.0166258 0.0292215 0)
(0.0236623 0.0282102 0)
(0.0308737 0.0271735 0)
(0.037882 0.0257654 0)
(0.0441037 0.023688 0)
(0.0488084 0.0208421 0)
(0.0512394 0.017462 0)
(0.0508101 0.0141723 0)
(0.0464751 0.0112583 0)
(0.0381502 -0.0056604 0)
(0.0465118 -0.0613299 0)
(0.0199833 -0.151748 0)
(0.0441231 -0.245479 0)
(-0.0121487 0.0617162 0)
(-0.0180417 0.0414667 0)
(-0.00659325 0.031141 0)
(0.00432944 0.0274048 0)
(0.0136678 0.0246278 0)
(0.0227997 0.0221897 0)
(0.0316392 0.0204441 0)
(0.0404059 0.0191877 0)
(0.0491801 0.0182354 0)
(0.0579351 0.0174374 0)
(0.0665069 0.0166514 0)
(0.0745879 0.0157498 0)
(0.0817974 0.0146559 0)
(0.0878894 0.0132854 0)
(0.0930776 0.0108547 0)
(0.0936464 0.00299265 0)
(0.103045 -0.0190833 0)
(0.109508 -0.059182 0)
(0.0766087 -0.121231 0)
(0.080891 -0.194882 0)
(0.0686339 0.0613831 0)
(0.0868256 0.0446115 0)
(0.122023 0.0334303 0)
(0.151325 0.0270917 0)
(0.175051 0.0229281 0)
(0.195699 0.0198155 0)
(0.214283 0.0173966 0)
(0.231291 0.0154729 0)
(0.247053 0.0139107 0)
(0.261803 0.0126193 0)
(0.275685 0.0115359 0)
(0.288753 0.0106123 0)
(0.300967 0.00980444 0)
(0.312101 0.00902414 0)
(0.321421 0.00783695 0)
(0.328242 0.00442018 0)
(0.323817 -0.00317244 0)
(0.296694 -0.0177641 0)
(0.226214 -0.0473841 0)
(0.165171 -0.102892 0)
)
;

boundaryField
{
    movingWall
    {
        type            fixedValue;
        value           uniform (1 0 0);
    }
    fixedWalls
    {
        type            noSlip;
    }
    frontAndBack
    {
        type            empty;
    }
}


// ************************************************************************* //
