/*--------------------------------*- C++ -*----------------------------------*\
  =========                 |
  \\      /  F ield         | OpenFOAM: The Open Source CFD Toolbox
   \\    /   O peration     | Website:  https://openfoam.org
    \\  /    A nd           | Version:  8
     \\/     M anipulation  |
\*---------------------------------------------------------------------------*/
FoamFile
{
    version     2.0;
    format      ascii;
    class       volScalarField;
    location    "10";
    object      p;
}
// * * * * * * * * * * * * * * * * * * * * * * * * * * * * * * * * * * * * * //

dimensions      [0 2 -2 0 0 0 0];

internalField   nonuniform List<scalar> 
400
(
1.11549e-08
-0.000181258
-0.000387614
-0.00063356
-0.00100878
-0.00152147
-0.00215937
-0.00285782
-0.00351409
-0.00400487
-0.00419973
-0.00396785
-0.00319086
-0.00179859
0.000206919
0.00270927
0.00536508
0.00754839
0.00860006
0.0084312
0.000175232
1.78208e-05
-0.000257165
-0.000580595
-0.00101656
-0.00160409
-0.00232649
-0.00311303
-0.00385568
-0.00442897
-0.0047068
-0.00456885
-0.00390816
-0.00268972
-0.000842873
0.00151275
0.00407243
0.00629439
0.00753579
0.0076283
0.00049949
0.000221022
-0.000161665
-0.000655111
-0.00129833
-0.00209849
-0.00301732
-0.0039713
-0.00484773
-0.00552515
-0.00589243
-0.0058582
-0.00534033
-0.00423418
-0.00255862
-0.000388659
0.00206282
0.00435792
0.00584498
0.0061944
0.000590258
0.000226411
-0.000323493
-0.00104238
-0.00193508
-0.00297317
-0.00409245
-0.00519852
-0.00618124
-0.00693355
-0.00736768
-0.00741445
-0.00700239
-0.00607424
-0.0046308
-0.00270443
-0.000417042
0.00190371
0.00359295
0.00418581
0.000267413
-0.00015469
-0.000842803
-0.0017525
-0.00285012
-0.00407503
-0.00534249
-0.00655098
-0.00759623
-0.00838763
-0.00885954
-0.00896433
-0.00865319
-0.00790413
-0.00671878
-0.00508644
-0.0030435
-0.000796149
0.000987706
0.00178969
-0.000461032
-0.000904157
-0.0016698
-0.00269496
-0.00391773
-0.0052524
-0.00659826
-0.00784906
-0.00890677
-0.00969515
-0.0101667
-0.0102952
-0.0100633
-0.00948144
-0.00855411
-0.00724247
-0.00551709
-0.00344977
-0.00169858
-0.000741577
-0.00143891
-0.00187268
-0.00266132
-0.00373096
-0.00500246
-0.00637358
-0.00773286
-0.00897134
-0.0099965
-0.0107438
-0.0111812
-0.0113039
-0.0111255
-0.0106807
-0.00998099
-0.00897875
-0.0076104
-0.00580783
-0.0042088
-0.00315491
-0.00247416
-0.00288227
-0.0036582
-0.00472118
-0.00598435
-0.00733729
-0.0086634
-0.00985308
-0.0108184
-0.0115042
-0.0118915
-0.0119928
-0.0118447
-0.0114974
-0.0109704
-0.0102244
-0.00920304
-0.0077064
-0.00634438
-0.00524864
-0.00341887
-0.0037863
-0.00453061
-0.00555516
-0.00677433
-0.00807671
-0.00934575
-0.0104733
-0.0113748
-0.0120013
-0.0123423
-0.0124166
-0.0122874
-0.0119983
-0.0115791
-0.0110085
-0.0102798
-0.00907906
-0.00798978
-0.00689098
-0.00418357
-0.0044913
-0.0051921
-0.00615947
-0.00731538
-0.00855263
-0.0097594
-0.0108306
-0.0116835
-0.0122705
-0.0125847
-0.0126523
-0.012529
-0.012256
-0.0118862
-0.0113999
-0.0108972
-0.0099361
-0.00910703
-0.00801341
-0.00471493
-0.00496857
-0.00560403
-0.0064995
-0.00758008
-0.00874792
-0.00989794
-0.0109279
-0.0117546
-0.0123273
-0.0126346
-0.0127048
-0.0125807
-0.0122976
-0.0119418
-0.0114512
-0.0111264
-0.0103195
-0.00970313
-0.00858861
-0.00500904
-0.0052167
-0.00577447
-0.00658431
-0.00758003
-0.00867614
-0.00977432
-0.010774
-0.0115898
-0.0121651
-0.0124799
-0.0125555
-0.0124235
-0.0121286
-0.0117392
-0.0112374
-0.0109788
-0.0102487
-0.00981325
-0.00860802
-0.00510594
-0.00526482
-0.00572819
-0.00643599
-0.00733793
-0.00836063
-0.00941074
-0.0103874
-0.0112009
-0.0117879
-0.0121185
-0.0121942
-0.012054
-0.0117434
-0.0113137
-0.0107818
-0.0104866
-0.00972421
-0.00953132
-0.0080458
-0.00506196
-0.0051607
-0.00549871
-0.00607748
-0.00687295
-0.00782171
-0.00883066
-0.00979454
-0.0106165
-0.0112242
-0.0115764
-0.0116614
-0.0115173
-0.0111868
-0.0107114
-0.0101323
-0.00974775
-0.00875762
-0.00896849
-0.00678666
-0.00493665
-0.00495299
-0.00511888
-0.0055326
-0.00620774
-0.00708648
-0.00806784
-0.00903591
-0.00988315
-0.0105262
-0.0109132
-0.0110213
-0.0108821
-0.0105295
-0.0100034
-0.00936011
-0.00883124
-0.00759991
-0.00794602
-0.00462819
-0.00479063
-0.00466918
-0.00460759
-0.00482267
-0.00537186
-0.00619469
-0.00717095
-0.00816689
-0.00906102
-0.00975854
-0.0101976
-0.0103477
-0.0102191
-0.00985184
-0.00928424
-0.00856899
-0.00783344
-0.00633606
-0.00621465
-0.0013485
-0.00469312
-0.00428357
-0.00396088
-0.00396362
-0.00440297
-0.00520075
-0.00620461
-0.0072577
-0.00822339
-0.00899606
-0.00950559
-0.00971575
-0.00962107
-0.00925848
-0.00866659
-0.00787059
-0.0068368
-0.00479399
-0.00312683
0.0047631
-0.00465263
-0.00381497
-0.00317904
-0.00298057
-0.00335437
-0.00417267
-0.0052409
-0.00637903
-0.00743727
-0.00830165
-0.00889617
-0.00918012
-0.00914189
-0.00878994
-0.008147
-0.00723462
-0.00577223
-0.00232941
0.00327137
0.0182162
-0.0051359
-0.00333654
-0.00235425
-0.00202656
-0.0024069
-0.00329543
-0.00446043
-0.0057031
-0.00686347
-0.0078234
-0.00850553
-0.00886878
-0.00890293
-0.00862615
-0.00809113
-0.00725009
-0.00453705
0.00242409
0.0155759
0.0420633
-0.00823502
-0.00207644
-0.000447907
-0.00049524
-0.00114814
-0.0022142
-0.00354312
-0.00493949
-0.00623492
-0.00731073
-0.00809142
-0.00853548
-0.00862233
-0.00830493
-0.00730825
-0.00469137
0.00084706
0.0122927
0.0324464
0.0659102
)
;

boundaryField
{
    movingWall
    {
        type            zeroGradient;
    }
    fixedWalls
    {
        type            zeroGradient;
    }
    frontAndBack
    {
        type            empty;
    }
}


// ************************************************************************* //
