/*--------------------------------*- C++ -*----------------------------------*\
  =========                 |
  \\      /  F ield         | OpenFOAM: The Open Source CFD Toolbox
   \\    /   O peration     | Website:  https://openfoam.org
    \\  /    A nd           | Version:  8
     \\/     M anipulation  |
\*---------------------------------------------------------------------------*/
FoamFile
{
    version     2.0;
    format      ascii;
    class       surfaceScalarField;
    location    "10";
    object      phi;
}
// * * * * * * * * * * * * * * * * * * * * * * * * * * * * * * * * * * * * * //

dimensions      [0 3 -1 0 0 0 0];

internalField   nonuniform List<scalar> 
760
(
2.50556e-07
-2.50557e-07
2.50986e-07
-4.29846e-10
-3.84446e-08
2.8943e-07
-5.93065e-07
5.5462e-07
-1.30793e-06
7.14866e-07
-2.10845e-06
8.00522e-07
-2.93275e-06
8.243e-07
-3.72943e-06
7.96675e-07
-4.45604e-06
7.26615e-07
-5.07727e-06
6.21225e-07
-5.56272e-06
4.85455e-07
-5.88325e-06
3.20531e-07
-6.00602e-06
1.22768e-07
-5.89188e-06
-1.1414e-07
-5.49636e-06
-3.95517e-07
-4.78013e-06
-7.16236e-07
-3.72409e-06
-1.05604e-06
-2.36636e-06
-1.35773e-06
-9.1624e-07
-1.45012e-06
-9.1624e-07
-2.64142e-07
1.35847e-08
-8.28387e-07
5.63815e-07
-1.58612e-06
1.04717e-06
-2.41656e-06
1.38506e-06
-3.29213e-06
1.59043e-06
-4.16798e-06
1.67637e-06
-4.99932e-06
1.65565e-06
-5.74611e-06
1.54347e-06
-6.37365e-06
1.35415e-06
-6.85248e-06
1.10006e-06
-7.15765e-06
7.90626e-07
-7.26767e-06
4.30555e-07
-7.14507e-06
1.62298e-10
-6.80464e-06
-4.5457e-07
-6.22248e-06
-9.77671e-07
-5.38202e-06
-1.5567e-06
-4.26244e-06
-2.17562e-06
-2.87418e-06
-2.74598e-06
-1.32722e-06
-2.99708e-06
-2.24346e-06
-6.77503e-07
6.91088e-07
-1.50848e-06
1.39479e-06
-2.35196e-06
1.89064e-06
-3.19446e-06
2.22756e-06
-4.01088e-06
2.40685e-06
-4.77192e-06
2.43741e-06
-5.4496e-06
2.33333e-06
-6.01876e-06
2.11262e-06
-6.45908e-06
1.79446e-06
-6.75588e-06
1.39686e-06
-6.89932e-06
9.34067e-07
-6.88131e-06
4.12545e-07
-6.71307e-06
-1.68084e-07
-6.37503e-06
-7.92601e-07
-5.86299e-06
-1.48971e-06
-5.14345e-06
-2.27625e-06
-4.17728e-06
-3.14178e-06
-2.93822e-06
-3.98504e-06
-1.4656e-06
-4.46971e-06
-3.70906e-06
-8.05661e-07
1.49675e-06
-1.69317e-06
2.2823e-06
-2.53147e-06
2.72895e-06
-3.31158e-06
3.00767e-06
-4.02226e-06
3.11753e-06
-4.64771e-06
3.06285e-06
-5.17275e-06
2.85837e-06
-5.58552e-06
2.52539e-06
-5.87897e-06
2.08792e-06
-6.05119e-06
1.56907e-06
-6.10453e-06
9.87406e-07
-6.04481e-06
3.52828e-07
-5.8842e-06
-3.28697e-07
-5.61624e-06
-1.06056e-06
-5.22378e-06
-1.88217e-06
-4.66908e-06
-2.83095e-06
-3.89573e-06
-3.91514e-06
-2.83846e-06
-5.04231e-06
-1.47968e-06
-5.82848e-06
-5.18874e-06
-7.61183e-07
2.25793e-06
-1.59722e-06
3.11834e-06
-2.36543e-06
3.49716e-06
-3.05127e-06
3.6935e-06
-3.64714e-06
3.71341e-06
-4.14498e-06
3.5607e-06
-4.53833e-06
3.25172e-06
-4.82425e-06
2.81131e-06
-5.0045e-06
2.26817e-06
-5.08581e-06
1.65038e-06
-5.07945e-06
9.81039e-07
-5.00066e-06
2.74042e-07
-4.86481e-06
-4.64551e-07
-4.67284e-06
-1.25252e-06
-4.40919e-06
-2.14583e-06
-4.03265e-06
-3.20749e-06
-3.47115e-06
-4.47664e-06
-2.62141e-06
-5.89205e-06
-1.41777e-06
-7.03213e-06
-6.60651e-06
-6.28869e-07
2.8868e-06
-1.3552e-06
3.84467e-06
-2.01675e-06
4.15871e-06
-2.59214e-06
4.26888e-06
-3.07401e-06
4.19528e-06
-3.45761e-06
3.9443e-06
-3.7408e-06
3.53491e-06
-3.92505e-06
2.99556e-06
-4.01651e-06
2.35963e-06
-4.02686e-06
1.66073e-06
-3.97377e-06
9.27957e-07
-3.88095e-06
1.81219e-07
-3.76846e-06
-5.77044e-07
-3.64498e-06
-1.376e-06
-3.50039e-06
-2.29042e-06
-3.29645e-06
-3.41143e-06
-2.95149e-06
-4.82159e-06
-2.32598e-06
-6.51757e-06
-1.30939e-06
-8.04871e-06
-7.9159e-06
-4.5814e-07
3.34494e-06
-1.04568e-06
4.43222e-06
-1.58328e-06
4.69631e-06
-2.04301e-06
4.72862e-06
-2.41705e-06
4.56932e-06
-2.70188e-06
4.22913e-06
-2.89709e-06
3.73011e-06
-3.00561e-06
3.10408e-06
-3.0347e-06
2.38873e-06
-2.99749e-06
1.62352e-06
-2.91432e-06
8.44786e-07
-2.81414e-06
8.104e-08
-2.7184e-06
-6.72785e-07
-2.6416e-06
-1.45281e-06
-2.58635e-06
-2.34567e-06
-2.52824e-06
-3.46954e-06
-2.38727e-06
-4.96257e-06
-1.98799e-06
-6.91684e-06
-1.17426e-06
-8.86244e-06
-9.09016e-06
-2.76188e-07
3.62113e-06
-7.12965e-07
4.86899e-06
-1.12167e-06
5.10502e-06
-1.46749e-06
5.07443e-06
-1.74242e-06
4.84424e-06
-1.94396e-06
4.43068e-06
-2.07279e-06
3.85895e-06
-2.13241e-06
3.1637e-06
-2.12963e-06
2.38595e-06
-2.07618e-06
1.57008e-06
-1.98994e-06
7.58542e-07
-1.89815e-06
-1.07528e-08
-1.81528e-06
-7.55648e-07
-1.75918e-06
-1.50891e-06
-1.75073e-06
-2.35412e-06
-1.79336e-06
-3.42691e-06
-1.82559e-06
-4.93034e-06
-1.63911e-06
-7.10332e-06
-1.03023e-06
-9.47132e-06
-1.01204e-05
-1.02929e-07
3.72406e-06
-3.82571e-07
5.14864e-06
-6.64099e-07
5.38654e-06
-9.00671e-07
5.31101e-06
-1.08445e-06
5.02802e-06
-1.21446e-06
4.56069e-06
-1.29312e-06
3.9376e-06
-1.32512e-06
3.1957e-06
-1.31698e-06
2.37781e-06
-1.2769e-06
1.52999e-06
-1.2168e-06
6.9844e-07
-1.14821e-06
-7.93432e-08
-1.0907e-06
-8.13154e-07
-1.04505e-06
-1.55456e-06
-1.04914e-06
-2.35003e-06
-1.1417e-06
-3.33435e-06
-1.30329e-06
-4.76874e-06
-1.30367e-06
-7.10293e-06
-8.90051e-07
-9.88495e-06
-1.10104e-05
4.8782e-08
3.67528e-06
-7.41564e-08
5.27157e-06
-2.29801e-07
5.54219e-06
-3.61816e-07
5.44302e-06
-4.59175e-07
5.12538e-06
-5.22681e-07
4.6242e-06
-5.5721e-07
3.97213e-06
-5.69744e-07
3.20823e-06
-5.68398e-07
2.37647e-06
-5.60766e-07
1.52236e-06
-5.49379e-07
6.87054e-07
-5.26946e-07
-1.01776e-07
-4.99001e-07
-8.41099e-07
-4.74175e-07
-1.57939e-06
-4.91178e-07
-2.33302e-06
-5.96737e-07
-3.22879e-06
-8.41972e-07
-4.52351e-06
-9.97812e-07
-6.94709e-06
-7.61139e-07
-1.01216e-05
-1.17716e-05
1.72429e-07
3.50285e-06
2.01344e-07
5.24266e-06
1.67884e-07
5.57565e-06
1.36971e-07
5.47393e-06
1.24847e-07
5.1375e-06
1.29395e-07
4.61965e-06
1.42907e-07
3.95862e-06
1.55634e-07
3.1955e-06
1.57809e-07
2.37429e-06
1.41853e-07
1.53832e-06
1.08223e-07
7.20684e-07
7.42905e-08
-6.78434e-08
5.45005e-08
-8.21309e-07
2.31103e-08
-1.548e-06
-1.87943e-08
-2.29112e-06
-1.63067e-07
-3.08452e-06
-4.44548e-07
-4.24203e-06
-7.25645e-07
-6.666e-06
-6.44668e-07
-1.02026e-05
-1.24162e-05
2.72218e-07
3.23063e-06
4.31899e-07
5.08298e-06
5.16528e-07
5.49102e-06
5.88014e-07
5.40245e-06
6.64832e-07
5.06069e-06
7.43054e-07
4.54143e-06
8.11658e-07
3.89002e-06
8.58478e-07
3.14868e-06
8.7324e-07
2.35953e-06
8.50231e-07
1.56133e-06
7.90571e-07
7.80344e-07
7.0452e-07
1.82083e-08
6.14334e-07
-7.31124e-07
5.11888e-07
-1.44555e-06
3.80841e-07
-2.16007e-06
1.98028e-07
-2.90171e-06
-8.74749e-08
-3.95652e-06
-4.7934e-07
-6.27413e-06
-5.37329e-07
-1.01446e-05
-1.29536e-05
3.44951e-07
2.88568e-06
6.11974e-07
4.81596e-06
8.05555e-07
5.29744e-06
9.78147e-07
5.22985e-06
1.14629e-06
4.89255e-06
1.30331e-06
4.3844e-06
1.43498e-06
3.75835e-06
1.52701e-06
3.05665e-06
1.56893e-06
2.31761e-06
1.55669e-06
1.57357e-06
1.49246e-06
8.44579e-07
1.37594e-06
1.34727e-07
1.21414e-06
-5.6933e-07
1.01949e-06
-1.25089e-06
7.88973e-07
-1.92956e-06
5.23489e-07
-2.63622e-06
1.9929e-07
-3.63232e-06
-2.49443e-07
-5.8254e-06
-4.35004e-07
-9.95905e-06
-1.33886e-05
3.83371e-07
2.50231e-06
7.29969e-07
4.46936e-06
1.02277e-06
5.00464e-06
1.29734e-06
4.95528e-06
1.56176e-06
4.62813e-06
1.8042e-06
4.14196e-06
2.00692e-06
3.55563e-06
2.15375e-06
2.90981e-06
2.23361e-06
2.23775e-06
2.2416e-06
1.56559e-06
2.17681e-06
9.09364e-07
2.03743e-06
2.74107e-07
1.82432e-06
-3.56214e-07
1.55113e-06
-9.77702e-07
1.22243e-06
-1.60086e-06
8.4739e-07
-2.26119e-06
4.41527e-07
-3.22646e-06
-5.26893e-08
-5.33118e-06
-3.211e-07
-9.69063e-06
-1.37097e-05
3.7269e-07
2.12962e-06
7.66792e-07
4.07526e-06
1.15124e-06
4.62019e-06
1.53287e-06
4.57365e-06
1.90246e-06
4.25855e-06
2.2394e-06
3.80502e-06
2.52196e-06
3.27307e-06
2.73254e-06
2.69923e-06
2.85958e-06
2.11071e-06
2.89731e-06
1.52786e-06
2.84293e-06
9.63742e-07
2.69256e-06
4.24479e-07
2.44157e-06
-1.05222e-07
2.10645e-06
-6.42588e-07
1.69086e-06
-1.18527e-06
1.20934e-06
-1.77967e-06
7.00434e-07
-2.71755e-06
2.18916e-07
-4.84966e-06
-1.1555e-07
-9.35617e-06
-1.38252e-05
2.7878e-07
1.85084e-06
6.9611e-07
3.65793e-06
1.17204e-06
4.14425e-06
1.67348e-06
4.07221e-06
2.16224e-06
3.76979e-06
2.60527e-06
3.36198e-06
2.97718e-06
2.90116e-06
3.25994e-06
2.41647e-06
3.44239e-06
1.92826e-06
3.51891e-06
1.45133e-06
3.48716e-06
9.95497e-07
3.34533e-06
5.66311e-07
3.08367e-06
1.56438e-07
2.70305e-06
-2.61971e-07
2.21704e-06
-6.99259e-07
1.64139e-06
-1.20402e-06
1.04568e-06
-2.12184e-06
5.7744e-07
-4.38142e-06
1.60722e-07
-8.93945e-06
-1.36645e-05
4.70539e-08
1.80378e-06
4.82993e-07
3.22199e-06
1.07023e-06
3.55702e-06
1.717e-06
3.42544e-06
2.34344e-06
3.14336e-06
2.90509e-06
2.80033e-06
3.37546e-06
2.43079e-06
3.73804e-06
2.05389e-06
3.98354e-06
1.68277e-06
4.10797e-06
1.3269e-06
4.11065e-06
9.92816e-07
3.99253e-06
6.84435e-07
3.74783e-06
4.01132e-07
3.36256e-06
1.23302e-07
2.84538e-06
-1.82077e-07
2.22805e-06
-5.867e-07
1.62196e-06
-1.51574e-06
1.15775e-06
-3.91722e-06
5.51872e-07
-8.33357e-06
-1.31126e-05
-4.21617e-07
2.2254e-06
7.99981e-08
2.72037e-06
8.63158e-07
2.77386e-06
1.69656e-06
2.59203e-06
2.48183e-06
2.3581e-06
3.17512e-06
2.10704e-06
3.75478e-06
1.85113e-06
4.20883e-06
1.59984e-06
4.53213e-06
1.35946e-06
4.72448e-06
1.13455e-06
4.78875e-06
9.28546e-07
4.72952e-06
7.43669e-07
4.5503e-06
5.80353e-07
4.23993e-06
4.33669e-07
3.79762e-06
2.60232e-07
3.3352e-06
-1.24279e-07
2.92097e-06
-1.10152e-06
2.38402e-06
-3.38026e-06
1.32554e-06
-7.27509e-06
-1.17871e-05
-9.37228e-07
3.16263e-06
-2.16913e-07
2.00006e-06
9.2141e-07
1.63553e-06
2.0151e-06
1.49835e-06
3.00193e-06
1.37126e-06
3.87126e-06
1.2377e-06
4.61258e-06
1.1098e-06
5.22187e-06
9.90559e-07
5.70143e-06
8.79906e-07
6.05769e-06
7.78288e-07
6.29992e-06
6.86317e-07
6.4397e-06
6.03891e-07
6.49189e-06
5.2816e-07
6.48217e-06
4.4339e-07
6.45605e-06
2.86355e-07
6.40825e-06
-7.64782e-08
6.31163e-06
-1.00491e-06
5.46828e-06
-2.5369e-06
3.24503e-06
-5.05184e-06
-8.54207e-06
3.16263e-06
5.16268e-06
6.79822e-06
8.29656e-06
9.66783e-06
1.09055e-05
1.20153e-05
1.30059e-05
1.38858e-05
1.46641e-05
1.53504e-05
1.59543e-05
1.64825e-05
1.69258e-05
1.72122e-05
1.71357e-05
1.61308e-05
1.35939e-05
8.54207e-06
)
;

boundaryField
{
    movingWall
    {
        type            calculated;
        value           uniform 0;
    }
    fixedWalls
    {
        type            calculated;
        value           uniform 0;
    }
    frontAndBack
    {
        type            empty;
        value           nonuniform List<scalar> 0();
    }
}


// ************************************************************************* //
