/*--------------------------------*- C++ -*----------------------------------*\
  =========                 |
  \\      /  F ield         | OpenFOAM: The Open Source CFD Toolbox
   \\    /   O peration     | Website:  https://openfoam.org
    \\  /    A nd           | Version:  8
     \\/     M anipulation  |
\*---------------------------------------------------------------------------*/
FoamFile
{
    version     2.0;
    format      ascii;
    class       volVectorField;
    location    "10";
    object      U;
}
// * * * * * * * * * * * * * * * * * * * * * * * * * * * * * * * * * * * * * //

dimensions      [0 1 -1 0 0 0 0];

internalField   nonuniform List<vector> 
400
(
(0.00307332 -0.00403135 0)
(0.00621367 -0.00371077 0)
(0.00398287 -0.00101499 0)
(-0.0052835 0.00334195 0)
(-0.0183712 0.00618148 0)
(-0.0340621 0.00791316 0)
(-0.0506878 0.00876011 0)
(-0.0671573 0.00891423 0)
(-0.0825715 0.00853814 0)
(-0.0961891 0.00774811 0)
(-0.107379 0.00661228 0)
(-0.115539 0.0051364 0)
(-0.120029 0.00324632 0)
(-0.120205 0.000777672 0)
(-0.115075 -0.00254185 0)
(-0.103598 -0.00647947 0)
(-0.0853566 -0.0107087 0)
(-0.0609658 -0.0143901 0)
(-0.0330491 -0.0151257 0)
(-0.00764136 -0.00715741 0)
(-0.000707961 -0.00576181 0)
(-0.0101772 0.00378822 0)
(-0.0235139 0.0133522 0)
(-0.0395144 0.0197502 0)
(-0.0569492 0.0235457 0)
(-0.0748228 0.0253228 0)
(-0.092175 0.0253848 0)
(-0.10817 0.0239958 0)
(-0.122068 0.0213878 0)
(-0.13325 0.0177548 0)
(-0.141195 0.0132384 0)
(-0.145421 0.00789034 0)
(-0.145398 0.00161891 0)
(-0.140617 -0.00582521 0)
(-0.131209 -0.0142181 0)
(-0.116772 -0.023495 0)
(-0.0968299 -0.0332479 0)
(-0.0715362 -0.0418924 0)
(-0.042665 -0.0447825 0)
(-0.0138296 -0.0305527 0)
(-0.0062352 0.00661819 0)
(-0.0218832 0.0198118 0)
(-0.0384302 0.0296381 0)
(-0.0554699 0.0364653 0)
(-0.0722906 0.0403702 0)
(-0.0882873 0.0415784 0)
(-0.102858 0.040363 0)
(-0.11546 0.037039 0)
(-0.125635 0.0319258 0)
(-0.13304 0.0253141 0)
(-0.137457 0.0174304 0)
(-0.138764 0.00839391 0)
(-0.136821 -0.00181985 0)
(-0.131634 -0.0132042 0)
(-0.123137 -0.0257207 0)
(-0.110757 -0.039607 0)
(-0.093719 -0.0545456 0)
(-0.0714869 -0.0685389 0)
(-0.0449449 -0.0754299 0)
(-0.0160694 -0.0595941 0)
(-0.00782113 0.0220633 0)
(-0.0253519 0.0369999 0)
(-0.0424857 0.0464412 0)
(-0.0587674 0.0526563 0)
(-0.0738058 0.05562 0)
(-0.0872941 0.0554299 0)
(-0.0988969 0.0523583 0)
(-0.10833 0.0467897 0)
(-0.115397 0.0391502 0)
(-0.12002 0.0298463 0)
(-0.122244 0.0192056 0)
(-0.12218 0.00742593 0)
(-0.119814 -0.00542759 0)
(-0.115538 -0.0193253 0)
(-0.108998 -0.0348097 0)
(-0.0995813 -0.0524118 0)
(-0.0862588 -0.0720394 0)
(-0.0678053 -0.0916671 0)
(-0.0444414 -0.104059 0)
(-0.01614 -0.0896054 0)
(-0.00716848 0.0376987 0)
(-0.0240375 0.0541626 0)
(-0.0400715 0.0624873 0)
(-0.0546855 0.067315 0)
(-0.0675739 0.0686723 0)
(-0.078576 0.0666282 0)
(-0.0875256 0.061489 0)
(-0.0943162 0.0537149 0)
(-0.0989298 0.043832 0)
(-0.101464 0.0323492 0)
(-0.102141 0.0196815 0)
(-0.101235 0.00609121 0)
(-0.0988781 -0.00835133 0)
(-0.0956907 -0.0238434 0)
(-0.0912433 -0.041283 0)
(-0.0849935 -0.061663 0)
(-0.0757147 -0.0853851 0)
(-0.0614373 -0.110805 0)
(-0.0421335 -0.129845 0)
(-0.0150085 -0.118825 0)
(-0.00545003 0.0516952 0)
(-0.020256 0.0698724 0)
(-0.0342261 0.0768418 0)
(-0.0466749 0.0799495 0)
(-0.0572943 0.0794362 0)
(-0.0659804 0.0754009 0)
(-0.0726511 0.0681983 0)
(-0.0772904 0.0583639 0)
(-0.0799686 0.046519 0)
(-0.0808718 0.0332779 0)
(-0.0803223 0.0191586 0)
(-0.0787291 0.00450353 0)
(-0.0764535 -0.0106365 0)
(-0.0742467 -0.0267278 0)
(-0.0716836 -0.0450854 0)
(-0.0684111 -0.0672358 0)
(-0.0632104 -0.0943118 0)
(-0.0532037 -0.125509 0)
(-0.0387289 -0.15208 0)
(-0.0132039 -0.146168 0)
(-0.00333135 0.0627699 0)
(-0.0153495 0.0831596 0)
(-0.0267729 0.0889205 0)
(-0.0368397 0.0903375 0)
(-0.0452168 0.0879909 0)
(-0.0518218 0.0820497 0)
(-0.056608 0.0729275 0)
(-0.0595944 0.0612328 0)
(-0.0608768 0.047683 0)
(-0.0606589 0.0330143 0)
(-0.0592849 0.0178802 0)
(-0.0572399 0.00272112 0)
(-0.0551101 -0.0124508 0)
(-0.0535492 -0.0283611 0)
(-0.0523084 -0.0466693 0)
(-0.0513639 -0.0694784 0)
(-0.049955 -0.0989089 0)
(-0.043927 -0.135604 0)
(-0.0348285 -0.170322 0)
(-0.0110492 -0.17097 0)
(-0.00117753 0.0702899 0)
(-0.0100629 0.0935369 0)
(-0.0187578 0.098462 0)
(-0.0264103 0.0984309 0)
(-0.0326551 0.094484 0)
(-0.0374291 0.0868868 0)
(-0.0407099 0.0761146 0)
(-0.0425356 0.0628388 0)
(-0.0430032 0.0478582 0)
(-0.0422947 0.0320224 0)
(-0.0407058 0.0161237 0)
(-0.0386654 0.00071185 0)
(-0.0368858 -0.0141245 0)
(-0.0355893 -0.0294401 0)
(-0.034966 -0.046932 0)
(-0.035284 -0.0692177 0)
(-0.0370898 -0.0996572 0)
(-0.0343642 -0.141241 0)
(-0.0309097 -0.184424 0)
(-0.00874081 -0.192924 0)
(0.000743615 0.0741157 0)
(-0.00485676 0.100853 0)
(-0.0107746 0.105424 0)
(-0.0160807 0.104287 0)
(-0.0203187 0.0990817 0)
(-0.0234607 0.0901911 0)
(-0.0255178 0.078153 0)
(-0.0265592 0.0636883 0)
(-0.0266919 0.0476487 0)
(-0.0260732 0.0309599 0)
(-0.0249013 0.014521 0)
(-0.0232868 -0.00102674 0)
(-0.0222576 -0.0156484 0)
(-0.0211429 -0.0305105 0)
(-0.0207768 -0.0468559 0)
(-0.0212062 -0.067593 0)
(-0.0254935 -0.0973863 0)
(-0.0251122 -0.142872 0)
(-0.0273184 -0.194505 0)
(-0.00640095 -0.212021 0)
(0.00219766 0.0745832 0)
(-6.05147e-05 0.104979 0)
(-0.00319119 0.109892 0)
(-0.00624607 0.108022 0)
(-0.00857016 0.10193 0)
(-0.0101781 0.0921588 0)
(-0.0111227 0.0793099 0)
(-0.0115245 0.0641363 0)
(-0.0115256 0.0475017 0)
(-0.0112851 0.0303271 0)
(-0.0109673 0.0135319 0)
(-0.0105589 -0.00211949 0)
(-0.01014 -0.0167936 0)
(-0.00944517 -0.0314949 0)
(-0.00964296 -0.0468682 0)
(-0.00954313 -0.0655513 0)
(-0.0156339 -0.0931205 0)
(-0.0165314 -0.141142 0)
(-0.0242397 -0.200876 0)
(-0.004086 -0.228438 0)
(0.00322094 0.072407 0)
(0.00403671 0.105881 0)
(0.0036653 0.111828 0)
(0.00282705 0.109732 0)
(0.00237983 0.103126 0)
(0.00232103 0.0928593 0)
(0.0025477 0.0796273 0)
(0.0028758 0.0642315 0)
(0.0031156 0.0475564 0)
(0.00309806 0.030498 0)
(0.00273963 0.0138047 0)
(0.00182578 -0.00210461 0)
(0.00134164 -0.0170626 0)
(0.00110273 -0.0316471 0)
(-0.000320642 -0.0465153 0)
(-0.000122433 -0.0632167 0)
(-0.00756134 -0.0877916 0)
(-0.00871101 -0.136699 0)
(-0.0216823 -0.203916 0)
(-0.00178021 -0.242431 0)
(0.00392411 0.0679071 0)
(0.00740243 0.103938 0)
(0.00954697 0.111292 0)
(0.0108946 0.109313 0)
(0.0123418 0.102469 0)
(0.013909 0.0920333 0)
(0.0154323 0.0788321 0)
(0.0166656 0.0637008 0)
(0.0173787 0.0475098 0)
(0.0174026 0.0310898 0)
(0.0167428 0.0150296 0)
(0.0151517 -0.000679517 0)
(0.0134417 -0.0158052 0)
(0.0116033 -0.0303067 0)
(0.00875886 -0.044876 0)
(0.00762072 -0.0600287 0)
(-0.0010445 -0.0817567 0)
(-0.00149824 -0.129954 0)
(-0.0194961 -0.203992 0)
(0.000596722 -0.254257 0)
(0.00431362 0.0616113 0)
(0.00996351 0.0995632 0)
(0.0142959 0.108468 0)
(0.0177556 0.106869 0)
(0.0211252 0.100033 0)
(0.0244043 0.0897082 0)
(0.0273564 0.0768749 0)
(0.0296763 0.0623815 0)
(0.0311041 0.0470392 0)
(0.0314744 0.0315624 0)
(0.0307777 0.0164021 0)
(0.0292009 0.00151847 0)
(0.0262194 -0.0130833 0)
(0.022714 -0.0271886 0)
(0.0181824 -0.0412311 0)
(0.0147167 -0.055768 0)
(0.00433436 -0.0760477 0)
(0.00523344 -0.120985 0)
(-0.0174522 -0.201556 0)
(0.00320037 -0.264079 0)
(0.00430469 0.0541463 0)
(0.011526 0.0932641 0)
(0.0176651 0.103544 0)
(0.0231596 0.102408 0)
(0.0285214 0.0957504 0)
(0.0336325 0.0857704 0)
(0.0381606 0.0735956 0)
(0.0417432 0.0600627 0)
(0.0440943 0.0458926 0)
(0.0450414 0.0316696 0)
(0.0445378 0.0177451 0)
(0.0427601 0.00416499 0)
(0.0390404 -0.00926501 0)
(0.0342153 -0.0224074 0)
(0.0280804 -0.035537 0)
(0.0221326 -0.049296 0)
(0.00936406 -0.0689169 0)
(0.0113682 -0.111172 0)
(-0.0152327 -0.197208 0)
(0.00640115 -0.271799 0)
(0.00368201 0.0463112 0)
(0.0117285 0.0856215 0)
(0.0192891 0.0967071 0)
(0.0268038 0.0958757 0)
(0.0343123 0.0894772 0)
(0.0414426 0.0800501 0)
(0.0477283 0.0688124 0)
(0.0527534 0.0565517 0)
(0.0562151 0.043879 0)
(0.0579341 0.0312597 0)
(0.0578346 0.0189833 0)
(0.0560376 0.00715097 0)
(0.0518663 -0.00461804 0)
(0.0460471 -0.0162549 0)
(0.0385356 -0.0279857 0)
(0.030212 -0.040609 0)
(0.0154478 -0.0596782 0)
(0.0168246 -0.101764 0)
(-0.0121347 -0.190995 0)
(0.0109844 -0.276954 0)
(0.00189004 0.0393258 0)
(0.00989528 0.0772711 0)
(0.0186949 0.088081 0)
(0.0283911 0.0871241 0)
(0.0383286 0.0809954 0)
(0.0477426 0.0723425 0)
(0.056001 0.0623442 0)
(0.0626494 0.0516817 0)
(0.0673894 0.0408395 0)
(0.0700525 0.0301711 0)
(0.0705621 0.0199075 0)
(0.0689593 0.010169 0)
(0.0650518 0.00071096 0)
(0.0585118 -0.00894497 0)
(0.0499031 -0.0188556 0)
(0.0394438 -0.0300021 0)
(0.0234517 -0.048615 0)
(0.0231095 -0.0928707 0)
(-0.00662086 -0.184757 0)
(0.0178491 -0.278846 0)
(-0.00218616 0.0347746 0)
(0.00468577 0.0691335 0)
(0.0154437 0.0776833 0)
(0.0277875 0.0758559 0)
(0.0405843 0.06999 0)
(0.0525966 0.0623811 0)
(0.0630458 0.0539613 0)
(0.0714834 0.0452344 0)
(0.0776521 0.0365415 0)
(0.0814216 0.028126 0)
(0.0827471 0.0201518 0)
(0.0816459 0.0127147 0)
(0.0782116 0.00575257 0)
(0.0718853 -0.00135069 0)
(0.0627468 -0.00913563 0)
(0.0508816 -0.0183235 0)
(0.0351929 -0.036607 0)
(0.0336882 -0.0846421 0)
(0.00374684 -0.177216 0)
(0.0283038 -0.274956 0)
(-0.00860488 0.0397366 0)
(-0.00587156 0.06014 0)
(0.0095569 0.0650265 0)
(0.0255277 0.0618021 0)
(0.0417789 0.0564469 0)
(0.0567288 0.0503139 0)
(0.0696017 0.0439133 0)
(0.080046 0.0375219 0)
(0.0878991 0.0313264 0)
(0.0931123 0.0254656 0)
(0.0957152 0.0200407 0)
(0.0957857 0.0151179 0)
(0.0934209 0.0107172 0)
(0.0886764 0.00673362 0)
(0.0810091 0.00269867 0)
(0.0696104 -0.00339969 0)
(0.0587744 -0.0244853 0)
(0.057647 -0.0761357 0)
(0.0262421 -0.16178 0)
(0.0463118 -0.254718 0)
(-0.0150096 0.0559802 0)
(-0.0168741 0.0452517 0)
(0.00763377 0.0416541 0)
(0.0294691 0.0393798 0)
(0.050188 0.036276 0)
(0.0689247 0.0326912 0)
(0.0851719 0.0290495 0)
(0.0987697 0.0255329 0)
(0.109714 0.022215 0)
(0.118098 0.0191469 0)
(0.124083 0.0163678 0)
(0.127883 0.0138948 0)
(0.129761 0.0116872 0)
(0.130078 0.00946154 0)
(0.129055 0.00581057 0)
(0.124585 -0.00409206 0)
(0.125417 -0.0262555 0)
(0.122518 -0.0652307 0)
(0.0835446 -0.126178 0)
(0.0835075 -0.20013 0)
(0.0657946 0.0564063 0)
(0.0806769 0.0405423 0)
(0.117801 0.0305011 0)
(0.151182 0.0253024 0)
(0.180186 0.0219984 0)
(0.206188 0.0194758 0)
(0.229644 0.0174228 0)
(0.250664 0.0157048 0)
(0.269373 0.0142361 0)
(0.285942 0.012963 0)
(0.300563 0.0118514 0)
(0.313428 0.0108739 0)
(0.324681 0.0099894 0)
(0.33424 0.00905777 0)
(0.341523 0.00746894 0)
(0.345215 0.00347824 0)
(0.336219 -0.00443897 0)
(0.305015 -0.0193285 0)
(0.231254 -0.0491711 0)
(0.167748 -0.105239 0)
)
;

boundaryField
{
    movingWall
    {
        type            fixedValue;
        value           uniform (1 0 0);
    }
    fixedWalls
    {
        type            noSlip;
    }
    frontAndBack
    {
        type            empty;
    }
}


// ************************************************************************* //
