/*--------------------------------*- C++ -*----------------------------------*\
  =========                 |
  \\      /  F ield         | OpenFOAM: The Open Source CFD Toolbox
   \\    /   O peration     | Website:  https://openfoam.org
    \\  /    A nd           | Version:  8
     \\/     M anipulation  |
\*---------------------------------------------------------------------------*/
FoamFile
{
    version     2.0;
    format      ascii;
    class       volScalarField;
    location    "3";
    object      p;
}
// * * * * * * * * * * * * * * * * * * * * * * * * * * * * * * * * * * * * * //

dimensions      [0 2 -2 0 0 0 0];

internalField   nonuniform List<scalar> 
400
(
5.74688e-08
-0.000127622
-0.00030315
-0.000495411
-0.00076766
-0.00114192
-0.00162125
-0.00216531
-0.00269299
-0.00309767
-0.00326176
-0.00306639
-0.00240114
-0.00118968
0.000568442
0.00277359
0.0051254
0.00706347
0.00799273
0.00783245
0.000122783
2.38486e-05
-0.00017043
-0.00042336
-0.000751465
-0.00118934
-0.00174197
-0.00236514
-0.00297291
-0.00345532
-0.00369647
-0.00358617
-0.00302862
-0.00196852
-0.00035428
0.00172202
0.00399119
0.0059659
0.00706404
0.00713925
0.000357731
0.000174507
-9.0239e-05
-0.000449179
-0.000933282
-0.00155357
-0.00228857
-0.00307622
-0.00382129
-0.00441362
-0.00474743
-0.00473244
-0.00428926
-0.00334419
-0.00188149
3.06605e-05
0.00220714
0.00425492
0.00558141
0.00589123
0.000428223
0.000191937
-0.000194256
-0.000724956
-0.00141445
-0.00224825
-0.00317801
-0.00412412
-0.00498677
-0.00566359
-0.00606697
-0.00612823
-0.00578328
-0.00498315
-0.00372471
-0.00203052
9.30041e-07
0.00207929
0.00359854
0.00413248
0.000196305
-8.49654e-05
-0.000580399
-0.00127014
-0.00214182
-0.00315369
-0.00423615
-0.00529764
-0.00623775
-0.00696439
-0.00740791
-0.00751948
-0.00725643
-0.00660576
-0.00557445
-0.00414569
-0.00233514
-0.00031837
0.00129598
0.00202461
-0.000352456
-0.00065688
-0.00122241
-0.00201824
-0.0030116
-0.00413889
-0.00531383
-0.00643635
-0.00740697
-0.0081428
-0.00858869
-0.00871445
-0.00850619
-0.00798911
-0.00718253
-0.00604479
-0.00452533
-0.00267187
-0.00108173
-0.000206833
-0.0011142
-0.00141875
-0.00201238
-0.00285781
-0.00390908
-0.00508798
-0.00629682
-0.00742991
-0.00838886
-0.00909754
-0.009512
-0.00962093
-0.00944005
-0.00902396
-0.00840906
-0.00754992
-0.00635927
-0.00475151
-0.00330057
-0.00233233
-0.00194261
-0.00223236
-0.00282306
-0.00367301
-0.00473022
-0.00590935
-0.00710727
-0.00821586
-0.00913785
-0.00980142
-0.0101699
-0.0102459
-0.0100708
-0.00971576
-0.00923578
-0.00860014
-0.00772742
-0.00640647
-0.00517889
-0.0041685
-0.00272125
-0.00297814
-0.00354717
-0.00436916
-0.00539465
-0.00653814
-0.00769713
-0.00876451
-0.00964462
-0.0102676
-0.0105984
-0.0106397
-0.0104574
-0.0101272
-0.00972037
-0.00922724
-0.00862097
-0.00757818
-0.00661248
-0.00559717
-0.00337298
-0.00358448
-0.00411351
-0.00488216
-0.00584873
-0.00693206
-0.00803567
-0.00905661
-0.00990108
-0.010498
-0.0108095
-0.0108398
-0.0106431
-0.0103102
-0.00992872
-0.00949448
-0.00910055
-0.008281
-0.00757164
-0.00656104
-0.00385277
-0.0040289
-0.00449177
-0.00518766
-0.00607313
-0.0070781
-0.00811515
-0.00908659
-0.0099001
-0.0104821
-0.0107871
-0.0108173
-0.0106152
-0.0102764
-0.00989749
-0.00945192
-0.00923485
-0.00856065
-0.00807153
-0.00704254
-0.00416163
-0.00430313
-0.00469132
-0.0052959
-0.00608291
-0.0069959
-0.0079569
-0.00887322
-0.00965302
-0.0102198
-0.0105222
-0.0105552
-0.0103607
-0.0100266
-0.00963763
-0.00919615
-0.00902589
-0.00845746
-0.00815377
-0.00704142
-0.00433202
-0.00443339
-0.00473161
-0.00522734
-0.00590297
-0.00671558
-0.00759541
-0.00845343
-0.00919751
-0.00974819
-0.0100506
-0.0100875
-0.00991055
-0.00959029
-0.00919736
-0.00875578
-0.00856643
-0.00801969
-0.00790669
-0.00655102
-0.00440516
-0.0044566
-0.00464033
-0.0050052
-0.00555733
-0.00626645
-0.00706794
-0.00787362
-0.00858942
-0.00913245
-0.00944439
-0.00950184
-0.00934736
-0.00904156
-0.00864434
-0.00819357
-0.00798218
-0.00725586
-0.00747111
-0.00551473
-0.00442205
-0.00440256
-0.00444163
-0.00465233
-0.00507246
-0.00568282
-0.0064188
-0.00718839
-0.00789279
-0.00844445
-0.00878087
-0.00887367
-0.00875403
-0.00846435
-0.00806187
-0.00759578
-0.00732707
-0.00633674
-0.00685819
-0.00377306
-0.00442543
-0.00427629
-0.00414533
-0.0041858
-0.00447599
-0.005004
-0.00569791
-0.00645618
-0.00717219
-0.00775254
-0.00813058
-0.00827439
-0.00819223
-0.00793137
-0.00753712
-0.00706156
-0.00667776
-0.00547305
-0.00572668
-0.000960372
-0.00444377
-0.00407262
-0.00374742
-0.00361642
-0.00379571
-0.00427223
-0.00495757
-0.00573536
-0.00648914
-0.00711926
-0.00755464
-0.00775936
-0.00773346
-0.00751127
-0.00714339
-0.00666864
-0.00608352
-0.00449486
-0.00329694
0.00444438
-0.00451547
-0.00381788
-0.00325035
-0.00296627
-0.00306629
-0.00353104
-0.00424408
-0.00507078
-0.00588508
-0.00658202
-0.007087
-0.00736033
-0.00739532
-0.0072086
-0.00681929
-0.00627469
-0.00540878
-0.00264724
0.00236437
0.0170879
-0.00523812
-0.00363533
-0.00275325
-0.00234968
-0.00241999
-0.00291672
-0.00369041
-0.00458807
-0.00547513
-0.00624384
-0.00681884
-0.00715981
-0.00726017
-0.00714428
-0.00687853
-0.0065745
-0.00465617
0.00154129
0.0140886
0.0402753
-0.00846919
-0.00265756
-0.00112904
-0.0010265
-0.00133922
-0.00198834
-0.00290239
-0.00393239
-0.00493533
-0.00580275
-0.00646111
-0.00687029
-0.00701728
-0.00688061
-0.00625668
-0.00420913
0.000584605
0.01129
0.0308712
0.063979
)
;

boundaryField
{
    movingWall
    {
        type            zeroGradient;
    }
    fixedWalls
    {
        type            zeroGradient;
    }
    frontAndBack
    {
        type            empty;
    }
}


// ************************************************************************* //
