/*--------------------------------*- C++ -*----------------------------------*\
  =========                 |
  \\      /  F ield         | OpenFOAM: The Open Source CFD Toolbox
   \\    /   O peration     | Website:  https://openfoam.org
    \\  /    A nd           | Version:  8
     \\/     M anipulation  |
\*---------------------------------------------------------------------------*/
FoamFile
{
    version     2.0;
    format      ascii;
    class       surfaceScalarField;
    location    "3";
    object      phi;
}
// * * * * * * * * * * * * * * * * * * * * * * * * * * * * * * * * * * * * * //

dimensions      [0 3 -1 0 0 0 0];

internalField   nonuniform List<scalar> 
760
(
1.80734e-07
-1.8074e-07
2.12518e-07
-3.17843e-08
1.69271e-08
1.95591e-07
-4.11281e-07
4.28207e-07
-1.01662e-06
6.05336e-07
-1.73114e-06
7.14522e-07
-2.49161e-06
7.60476e-07
-3.24386e-06
7.5225e-07
-3.94276e-06
6.98893e-07
-4.55057e-06
6.07813e-07
-5.03504e-06
4.84473e-07
-5.3665e-06
3.31455e-07
-5.51435e-06
1.47849e-07
-5.43855e-06
-7.57977e-08
-5.09594e-06
-3.42611e-07
-4.44602e-06
-6.49918e-07
-3.46888e-06
-9.77142e-07
-2.20061e-06
-1.26827e-06
-8.4351e-07
-1.3571e-06
-8.4351e-07
-1.77074e-07
-3.66549e-09
-6.25368e-07
4.16509e-07
-1.28322e-06
8.53445e-07
-2.04243e-06
1.18742e-06
-2.85298e-06
1.41588e-06
-3.67573e-06
1.53727e-06
-4.46987e-06
1.55462e-06
-5.19537e-06
1.47775e-06
-5.81595e-06
1.31947e-06
-6.30021e-06
1.09207e-06
-6.62142e-06
8.05679e-07
-6.75601e-06
4.66051e-07
-6.67403e-06
6.58684e-08
-6.37402e-06
-3.75807e-07
-5.8414e-06
-8.75231e-07
-5.06134e-06
-1.42998e-06
-4.01308e-06
-2.0254e-06
-2.70505e-06
-2.5763e-06
-1.24315e-06
-2.819e-06
-2.08666e-06
-5.25972e-07
5.22307e-07
-1.24851e-06
1.13905e-06
-2.0108e-06
1.61574e-06
-2.79325e-06
1.96986e-06
-3.56623e-06
2.18886e-06
-4.29824e-06
2.26928e-06
-4.96017e-06
2.21655e-06
-5.52562e-06
2.0432e-06
-5.97203e-06
1.76588e-06
-6.28214e-06
1.40218e-06
-6.44415e-06
9.67684e-07
-6.45027e-06
4.7218e-07
-6.29973e-06
-8.4672e-08
-5.99356e-06
-6.81986e-07
-5.52215e-06
-1.34663e-06
-4.85447e-06
-2.09766e-06
-3.95066e-06
-2.92921e-06
-2.78237e-06
-3.7446e-06
-1.38644e-06
-4.21493e-06
-3.4731e-06
-6.64829e-07
1.18714e-06
-1.44526e-06
1.91948e-06
-2.20975e-06
2.38023e-06
-2.94021e-06
2.70032e-06
-3.62023e-06
2.86889e-06
-4.23036e-06
2.87941e-06
-4.75202e-06
2.73821e-06
-5.16995e-06
2.46113e-06
-5.47364e-06
2.06957e-06
-5.65819e-06
1.58672e-06
-5.72419e-06
1.03369e-06
-5.67698e-06
4.24967e-07
-5.53012e-06
-2.31528e-07
-5.28313e-06
-9.28975e-07
-4.92312e-06
-1.70665e-06
-4.4133e-06
-2.60748e-06
-3.69491e-06
-3.6476e-06
-2.69983e-06
-4.73968e-06
-1.40885e-06
-5.5059e-06
-4.88195e-06
-6.4239e-07
1.82953e-06
-1.38178e-06
2.65887e-06
-2.08335e-06
3.0818e-06
-2.72774e-06
3.3447e-06
-3.30218e-06
3.44333e-06
-3.79401e-06
3.37124e-06
-4.19222e-06
3.13642e-06
-4.48922e-06
2.75814e-06
-4.68228e-06
2.26263e-06
-4.77438e-06
1.67882e-06
-4.77462e-06
1.03394e-06
-4.69845e-06
3.48794e-07
-4.56578e-06
-3.64203e-07
-4.38429e-06
-1.11047e-06
-4.14539e-06
-1.94555e-06
-3.8087e-06
-2.94417e-06
-3.29692e-06
-4.15938e-06
-2.5017e-06
-5.5349e-06
-1.35643e-06
-6.65117e-06
-6.23838e-06
-5.31466e-07
2.36099e-06
-1.17343e-06
3.30084e-06
-1.77682e-06
3.68518e-06
-2.31804e-06
3.88593e-06
-2.78574e-06
3.91103e-06
-3.17065e-06
3.75615e-06
-3.46579e-06
3.43156e-06
-3.66736e-06
2.95971e-06
-3.77589e-06
2.37116e-06
-3.79759e-06
1.70052e-06
-3.7462e-06
9.82552e-07
-3.64509e-06
2.47682e-07
-3.52114e-06
-4.8815e-07
-3.39482e-06
-1.23679e-06
-3.26673e-06
-2.07364e-06
-3.09975e-06
-3.11115e-06
-2.80233e-06
-4.4568e-06
-2.22528e-06
-6.11195e-06
-1.25775e-06
-7.6187e-06
-7.49613e-06
-3.80489e-07
2.74148e-06
-8.9446e-07
3.81481e-06
-1.38138e-06
4.17211e-06
-1.81257e-06
4.31711e-06
-2.17742e-06
4.27588e-06
-2.46881e-06
4.04754e-06
-2.682e-06
3.64475e-06
-2.81474e-06
3.09244e-06
-2.86788e-06
2.4243e-06
-2.84687e-06
1.67951e-06
-2.7644e-06
9.00077e-07
-2.6456e-06
1.28886e-07
-2.522e-06
-6.11746e-07
-2.42575e-06
-1.33304e-06
-2.37606e-06
-2.12332e-06
-2.35278e-06
-3.13443e-06
-2.26038e-06
-4.5492e-06
-1.90561e-06
-6.46672e-06
-1.13213e-06
-8.39218e-06
-8.62826e-06
-2.18228e-07
2.95971e-06
-5.89726e-07
4.18631e-06
-9.53104e-07
4.53549e-06
-1.27321e-06
4.63722e-06
-1.54039e-06
4.54306e-06
-1.74972e-06
4.25687e-06
-1.89873e-06
3.79376e-06
-1.98681e-06
3.18052e-06
-2.01485e-06
2.45234e-06
-1.98577e-06
1.65043e-06
-1.90605e-06
8.20351e-07
-1.78923e-06
1.20662e-08
-1.6668e-06
-7.34168e-07
-1.57657e-06
-1.42328e-06
-1.56026e-06
-2.13964e-06
-1.63386e-06
-3.06083e-06
-1.71797e-06
-4.4651e-06
-1.5742e-06
-6.61049e-06
-9.97366e-07
-8.96901e-06
-9.62562e-06
-6.55063e-08
3.02522e-06
-2.87438e-07
4.40824e-06
-5.27421e-07
4.77547e-06
-7.38136e-07
4.84793e-06
-9.11278e-07
4.7162e-06
-1.04439e-06
4.38998e-06
-1.13783e-06
3.88721e-06
-1.19358e-06
3.23627e-06
-1.21396e-06
2.47272e-06
-1.19989e-06
1.63636e-06
-1.15016e-06
7.70624e-07
-1.0638e-06
-7.42978e-08
-9.70054e-07
-8.27914e-07
-8.90597e-07
-1.50273e-06
-8.78591e-07
-2.15164e-06
-9.9515e-07
-2.94427e-06
-1.21281e-06
-4.24744e-06
-1.25575e-06
-6.56755e-06
-8.6638e-07
-9.35838e-06
-1.0492e-05
6.37179e-08
2.9615e-06
-1.40735e-08
4.48603e-06
-1.29794e-07
4.89119e-06
-2.34007e-07
4.95215e-06
-3.14684e-07
4.79688e-06
-3.71489e-07
4.44678e-06
-4.07657e-07
3.92338e-06
-4.27972e-07
3.25658e-06
-4.37287e-07
2.48204e-06
-4.38651e-07
1.63772e-06
-4.29043e-07
7.61016e-07
-4.04685e-07
-9.86563e-08
-3.67009e-07
-8.6559e-07
-3.34485e-07
-1.53526e-06
-3.41917e-07
-2.14421e-06
-4.64802e-07
-2.82138e-06
-7.68829e-07
-3.94342e-06
-9.6726e-07
-6.36912e-06
-7.47062e-07
-9.57858e-06
-1.12391e-05
1.64675e-07
2.79682e-06
2.20931e-07
4.42977e-06
2.21497e-07
4.89062e-06
2.20043e-07
4.9536e-06
2.31279e-07
4.78565e-06
2.5378e-07
4.42428e-06
2.81366e-07
3.89579e-06
3.06409e-07
3.23154e-06
3.21681e-07
2.46677e-06
3.21524e-07
1.63788e-06
3.00659e-07
7.81881e-07
2.57458e-07
-5.54548e-08
2.13388e-07
-8.2152e-07
1.63002e-07
-1.48487e-06
9.94693e-08
-2.08068e-06
-6.15736e-08
-2.66034e-06
-3.90616e-07
-3.61437e-06
-7.14057e-07
-6.04568e-06
-6.41478e-07
-9.65116e-06
-1.18805e-05
2.39812e-07
2.55701e-06
4.03509e-07
4.26608e-06
5.10597e-07
4.78354e-06
6.07825e-07
4.85637e-06
7.10275e-07
4.6832e-06
8.14223e-07
4.32033e-06
9.0985e-07
3.80017e-06
9.86222e-07
3.15517e-06
1.03326e-06
2.41973e-06
1.0421e-06
1.62904e-06
1.00366e-06
8.20326e-07
9.10339e-07
3.78636e-08
7.84758e-07
-6.95939e-07
6.39154e-07
-1.33927e-06
4.74412e-07
-1.91594e-06
2.76422e-07
-2.46235e-06
-5.47291e-08
-3.28322e-06
-4.91897e-07
-5.60851e-06
-5.46977e-07
-9.59608e-06
-1.24275e-05
2.84945e-07
2.27207e-06
5.2959e-07
4.02143e-06
7.2813e-07
4.585e-06
9.17111e-07
4.66739e-06
1.10766e-06
4.49264e-06
1.29224e-06
4.13575e-06
1.45675e-06
3.63566e-06
1.58638e-06
3.02553e-06
1.66777e-06
2.33833e-06
1.68925e-06
1.60757e-06
1.64078e-06
8.68794e-07
1.51843e-06
1.60211e-07
1.32995e-06
-5.0745e-07
1.0986e-06
-1.10792e-06
8.33843e-07
-1.65118e-06
5.42394e-07
-2.1709e-06
1.88602e-07
-2.92943e-06
-2.92203e-07
-5.1277e-06
-4.58017e-07
-9.43026e-06
-1.28855e-05
2.9305e-07
1.97902e-06
5.88204e-07
3.72628e-06
8.63017e-07
4.31018e-06
1.13783e-06
4.39257e-06
1.41442e-06
4.21606e-06
1.67895e-06
3.87123e-06
1.91228e-06
3.40233e-06
2.09574e-06
2.84207e-06
2.21318e-06
2.2209e-06
2.25127e-06
1.56947e-06
2.20029e-06
9.19775e-07
2.05724e-06
3.03265e-07
1.82647e-06
-2.76676e-07
1.52898e-06
-8.1044e-07
1.1778e-06
-1.3e-06
7.86176e-07
-1.77927e-06
3.77814e-07
-2.52107e-06
-1.10858e-07
-4.63903e-06
-3.60182e-07
-9.18094e-06
-1.32457e-05
2.48986e-07
1.73003e-06
5.64617e-07
3.41065e-06
9.02832e-07
3.97197e-06
1.26123e-06
4.03417e-06
1.62505e-06
3.85224e-06
1.97088e-06
3.52539e-06
2.27403e-06
3.09918e-06
2.51254e-06
2.60356e-06
2.66858e-06
2.06486e-06
2.72879e-06
1.50926e-06
2.68498e-06
9.63579e-07
2.5353e-06
4.52951e-07
2.27579e-06
-1.71708e-08
1.9321e-06
-4.6675e-07
1.5123e-06
-8.80205e-07
1.03571e-06
-1.30268e-06
5.59361e-07
-2.04472e-06
9.14794e-08
-4.17115e-06
-1.9747e-07
-8.89199e-06
-1.34432e-05
1.21697e-07
1.60833e-06
4.39208e-07
3.09314e-06
8.36179e-07
3.575e-06
1.28323e-06
3.58712e-06
1.74033e-06
3.39515e-06
2.1717e-06
3.09402e-06
2.54724e-06
2.72364e-06
2.84303e-06
2.30777e-06
3.0411e-06
1.86678e-06
3.12945e-06
1.42091e-06
3.10271e-06
9.90318e-07
2.96248e-06
5.93189e-07
2.70611e-06
2.39197e-07
2.33263e-06
-9.32681e-08
1.86705e-06
-4.14624e-07
1.33064e-06
-7.66277e-07
8.06881e-07
-1.52096e-06
4.29439e-07
-3.79371e-06
9.69208e-08
-8.55947e-06
-1.33463e-05
-1.29531e-07
1.73786e-06
1.78994e-07
2.78461e-06
6.57543e-07
3.09645e-06
1.21004e-06
3.03463e-06
1.77226e-06
2.83293e-06
2.29591e-06
2.57036e-06
2.74781e-06
2.27174e-06
3.10439e-06
1.9512e-06
3.34942e-06
1.62176e-06
3.47347e-06
1.29686e-06
3.47392e-06
9.89867e-07
3.35488e-06
7.12228e-07
3.12408e-06
4.69994e-07
2.77498e-06
2.55835e-07
2.31077e-06
4.95821e-08
1.75977e-06
-2.15278e-07
1.27735e-06
-1.03853e-06
9.70686e-07
-3.48704e-06
4.6782e-07
-8.05661e-06
-1.28784e-05
-5.47785e-07
2.28565e-06
-2.43716e-07
2.48054e-06
3.85709e-07
2.46702e-06
1.08704e-06
2.3333e-06
1.77512e-06
2.14485e-06
2.40262e-06
1.94286e-06
2.94079e-06
1.73356e-06
3.37021e-06
1.52178e-06
3.67911e-06
1.31285e-06
3.86285e-06
1.11312e-06
3.92342e-06
9.29299e-07
3.86851e-06
7.67136e-07
3.70856e-06
6.29945e-07
3.44789e-06
5.16506e-07
3.08978e-06
4.07694e-07
2.75314e-06
1.21364e-07
2.52382e-06
-8.09213e-07
2.17078e-06
-3.134e-06
1.23124e-06
-7.11706e-06
-1.16472e-05
-9.61329e-07
3.24698e-06
-4.52583e-07
1.9718e-06
4.69392e-07
1.54505e-06
1.40578e-06
1.39691e-06
2.27266e-06
1.27797e-06
3.05617e-06
1.15935e-06
3.7408e-06
1.04893e-06
4.31589e-06
9.46686e-07
4.77783e-06
8.50911e-07
5.12915e-06
7.61804e-07
5.37785e-06
6.80594e-07
5.53679e-06
6.08199e-07
5.62335e-06
5.43387e-07
5.66509e-06
4.74761e-07
5.72643e-06
3.46358e-07
5.82632e-06
2.14715e-08
5.93063e-06
-9.13523e-07
5.26565e-06
-2.46902e-06
3.15413e-06
-5.00554e-06
-8.49308e-06
3.24698e-06
5.21877e-06
6.76382e-06
8.16074e-06
9.43871e-06
1.05981e-05
1.1647e-05
1.25937e-05
1.34446e-05
1.42064e-05
1.4887e-05
1.54952e-05
1.60386e-05
1.65133e-05
1.68597e-05
1.68812e-05
1.59676e-05
1.34986e-05
8.49308e-06
)
;

boundaryField
{
    movingWall
    {
        type            calculated;
        value           uniform 0;
    }
    fixedWalls
    {
        type            calculated;
        value           uniform 0;
    }
    frontAndBack
    {
        type            empty;
        value           nonuniform List<scalar> 0();
    }
}


// ************************************************************************* //
