/*--------------------------------*- C++ -*----------------------------------*\
  =========                 |
  \\      /  F ield         | OpenFOAM: The Open Source CFD Toolbox
   \\    /   O peration     | Website:  https://openfoam.org
    \\  /    A nd           | Version:  8
     \\/     M anipulation  |
\*---------------------------------------------------------------------------*/
FoamFile
{
    version     2.0;
    format      ascii;
    class       volVectorField;
    location    "3";
    object      U;
}
// * * * * * * * * * * * * * * * * * * * * * * * * * * * * * * * * * * * * * //

dimensions      [0 1 -1 0 0 0 0];

internalField   nonuniform List<vector> 
400
(
(0.00216837 -0.00265762 0)
(0.00464016 -0.00268102 0)
(0.00359165 -0.00142751 0)
(-0.00277761 0.00161248 0)
(-0.0134511 0.00453726 0)
(-0.0271721 0.00661349 0)
(-0.0423506 0.00779066 0)
(-0.0577792 0.00822017 0)
(-0.0725014 0.00807122 0)
(-0.0857229 0.00747236 0)
(-0.0967737 0.00650576 0)
(-0.105042 0.00519596 0)
(-0.109897 0.00348745 0)
(-0.110678 0.00121476 0)
(-0.1065 -0.00189221 0)
(-0.0962387 -0.00563829 0)
(-0.0794808 -0.00969286 0)
(-0.0567871 -0.0132382 0)
(-0.0306434 -0.013964 0)
(-0.00679567 -0.00641341 0)
(-0.000204164 -0.00446673 0)
(-0.00687717 0.00170276 0)
(-0.018455 0.00996134 0)
(-0.032778 0.0163581 0)
(-0.0487178 0.0206521 0)
(-0.0653759 0.0230442 0)
(-0.0818415 0.0237135 0)
(-0.0972752 0.0228754 0)
(-0.110914 0.0207477 0)
(-0.122094 0.0175259 0)
(-0.130254 0.0133637 0)
(-0.134898 0.00833891 0)
(-0.135524 0.00240851 0)
(-0.131603 -0.00461103 0)
(-0.123063 -0.0126271 0)
(-0.109734 -0.0215273 0)
(-0.0911289 -0.0309132 0)
(-0.0673728 -0.0392498 0)
(-0.0401329 -0.0420236 0)
(-0.0127497 -0.0282242 0)
(-0.00416193 0.00445946 0)
(-0.0175361 0.0156952 0)
(-0.0323152 0.0249111 0)
(-0.0479551 0.0318712 0)
(-0.0637321 0.0364136 0)
(-0.0790043 0.0384775 0)
(-0.0931411 0.0381548 0)
(-0.10557 0.0356647 0)
(-0.11579 0.0312853 0)
(-0.123407 0.0253004 0)
(-0.128152 0.017954 0)
(-0.129865 0.00940132 0)
(-0.128394 -0.000324607 0)
(-0.123641 -0.0112231 0)
(-0.115877 -0.0231915 0)
(-0.104433 -0.0364844 0)
(-0.0885532 -0.0508468 0)
(-0.067676 -0.0643623 0)
(-0.0425914 -0.0710231 0)
(-0.0150983 -0.0555838 0)
(-0.00589955 0.0172448 0)
(-0.0212245 0.0308046 0)
(-0.0366256 0.0402176 0)
(-0.051706 0.0469957 0)
(-0.0659646 0.0509244 0)
(-0.0790153 0.0518807 0)
(-0.0904552 0.0499616 0)
(-0.0999317 0.0454396 0)
(-0.107177 0.0386876 0)
(-0.11204 0.0301069 0)
(-0.114512 0.0200601 0)
(-0.114682 0.00880844 0)
(-0.112581 -0.00351781 0)
(-0.108619 -0.0168403 0)
(-0.102618 -0.0315729 0)
(-0.0939873 -0.0483473 0)
(-0.0816816 -0.0671897 0)
(-0.0644271 -0.0861747 0)
(-0.0423289 -0.0982121 0)
(-0.0153326 -0.0840978 0)
(-0.00560406 0.0303505 0)
(-0.0204716 0.045962 0)
(-0.0349071 0.0548553 0)
(-0.048485 0.0607466 0)
(-0.0607803 0.0634648 0)
(-0.0715405 0.062873 0)
(-0.0805109 0.0591101 0)
(-0.0874924 0.0525246 0)
(-0.0923719 0.0435914 0)
(-0.095157 0.0328281 0)
(-0.0960024 0.0207127 0)
(-0.0951633 0.00760956 0)
(-0.0928312 -0.00629125 0)
(-0.0897505 -0.0210364 0)
(-0.0856643 -0.0374783 0)
(-0.0800837 -0.0567687 0)
(-0.0717254 -0.0795092 0)
(-0.05853 -0.10416 0)
(-0.0402851 -0.122744 0)
(-0.0143668 -0.112004 0)
(-0.00422789 0.0421497 0)
(-0.0172656 0.0598444 0)
(-0.0298189 0.067953 0)
(-0.0413872 0.0726251 0)
(-0.0515615 0.073878 0)
(-0.0601558 0.0716024 0)
(-0.0669963 0.0659844 0)
(-0.0719654 0.057446 0)
(-0.0750209 0.0465594 0)
(-0.0762312 0.0339616 0)
(-0.0758141 0.0202684 0)
(-0.074121 0.00598467 0)
(-0.0715513 -0.00863922 0)
(-0.0691777 -0.0238172 0)
(-0.0667652 -0.040855 0)
(-0.0640687 -0.0615832 0)
(-0.0597506 -0.0874843 0)
(-0.0507705 -0.11785 0)
(-0.037146 -0.143914 0)
(-0.012716 -0.138227 0)
(-0.00242808 0.0514347 0)
(-0.0128819 0.0715331 0)
(-0.0230608 0.0789368 0)
(-0.032372 0.0823878 0)
(-0.0404071 0.0822051 0)
(-0.0470221 0.0783349 0)
(-0.0520919 0.071011 0)
(-0.0555415 0.0607153 0)
(-0.0573493 0.0481023 0)
(-0.0575722 0.0339257 0)
(-0.0563861 0.0189652 0)
(-0.0541276 0.00391879 0)
(-0.0513526 -0.0108525 0)
(-0.0492953 -0.0256591 0)
(-0.0479275 -0.0421933 0)
(-0.0474469 -0.0631024 0)
(-0.0469324 -0.0911348 0)
(-0.0419543 -0.127028 0)
(-0.0335043 -0.16127 0)
(-0.0106988 -0.162097 0)
(-0.00060068 0.0575678 0)
(-0.00808793 0.0805155 0)
(-0.0156742 0.087518 0)
(-0.0226457 0.0899455 0)
(-0.0285854 0.0885419 0)
(-0.0333923 0.0833318 0)
(-0.0369884 0.0745941 0)
(-0.0393419 0.0628517 0)
(-0.0404525 0.0488063 0)
(-0.0403512 0.0332848 0)
(-0.0391057 0.0171958 0)
(-0.0368767 0.00144379 0)
(-0.0341617 -0.0133158 0)
(-0.0321253 -0.0273601 0)
(-0.0310845 -0.0424957 0)
(-0.0316772 -0.0621726 0)
(-0.0344035 -0.0908804 0)
(-0.0328376 -0.131802 0)
(-0.0298402 -0.174653 0)
(-0.00851058 -0.183304 0)
(0.000946101 0.0603842 0)
(-0.0034079 0.0866169 0)
(-0.00831249 0.0936143 0)
(-0.0129667 0.095297 0)
(-0.0168632 0.0929757 0)
(-0.019958 0.0867746 0)
(-0.0222258 0.0770215 0)
(-0.0236921 0.0642668 0)
(-0.0244016 0.0492212 0)
(-0.0243939 0.0327074 0)
(-0.0236366 0.0156543 0)
(-0.0218896 -0.000879581 0)
(-0.0200286 -0.0157951 0)
(-0.0182586 -0.029277 0)
(-0.0174061 -0.0427577 0)
(-0.0178633 -0.0599979 0)
(-0.0230567 -0.0875227 0)
(-0.0240277 -0.132585 0)
(-0.0265106 -0.18417 0)
(-0.00627477 -0.201834 0)
(0.00202184 0.06037 0)
(0.000782256 0.0896114 0)
(-0.00146258 0.0972767 0)
(-0.00386617 0.0985222 0)
(-0.00575974 0.0955933 0)
(-0.00715742 0.0887669 0)
(-0.0080801 0.0784268 0)
(-0.00861406 0.0651483 0)
(-0.0088595 0.0496358 0)
(-0.00889675 0.0326534 0)
(-0.00869109 0.0149975 0)
(-0.00807535 -0.00225771 0)
(-0.00748926 -0.0174464 0)
(-0.00667331 -0.0307561 0)
(-0.00672062 -0.0430942 0)
(-0.00652334 -0.0575291 0)
(-0.0134069 -0.082115 0)
(-0.0158981 -0.129995 0)
(-0.0237181 -0.190129 0)
(-0.00405128 -0.21787 0)
(0.00273997 0.0580967 0)
(0.00419161 0.0897923 0)
(0.0044556 0.0984149 0)
(0.00425422 0.0996088 0)
(0.00431576 0.0963481 0)
(0.00464287 0.0891954 0)
(0.00516215 0.078619 0)
(0.00572479 0.0652321 0)
(0.00617929 0.0497479 0)
(0.00639418 0.0329106 0)
(0.0064023 0.0154469 0)
(0.00594334 -0.00180198 0)
(0.0049385 -0.0172315 0)
(0.00408393 -0.0306119 0)
(0.00228541 -0.0425654 0)
(0.00234261 -0.0547496 0)
(-0.00561188 -0.0756416 0)
(-0.00854632 -0.124655 0)
(-0.0214978 -0.192921 0)
(-0.00182987 -0.231683 0)
(0.00315459 0.0539643 0)
(0.00680148 0.0875152 0)
(0.00922252 0.0972898 0)
(0.0110794 0.0986202 0)
(0.0130339 0.0951846 0)
(0.0150942 0.087913 0)
(0.0171178 0.0773853 0)
(0.0188851 0.064241 0)
(0.0201841 0.049182 0)
(0.0208272 0.0329276 0)
(0.0207488 0.0162085 0)
(0.0197572 -0.000248344 0)
(0.0173534 -0.015257 0)
(0.0146054 -0.0284713 0)
(0.0109999 -0.0402883 0)
(0.00916161 -0.0514745 0)
(0.000381128 -0.0684416 0)
(-0.00184123 -0.11701 0)
(-0.0197354 -0.192928 0)
(0.000465083 -0.243542 0)
(0.00324158 0.0485631 0)
(0.00851265 0.0832888 0)
(0.0126754 0.0941609 0)
(0.0163869 0.0957255 0)
(0.0201461 0.0922396 0)
(0.0239098 0.085023 0)
(0.0274449 0.0747876 0)
(0.0304491 0.0621914 0)
(0.0326396 0.0479117 0)
(0.0337685 0.0326383 0)
(0.0336572 0.017096 0)
(0.0323185 0.00199981 0)
(0.0289657 -0.0120307 0)
(0.0247167 -0.0245896 0)
(0.0193967 -0.0359027 0)
(0.0152481 -0.0466262 0)
(0.00463732 -0.0622122 0)
(0.00426795 -0.107309 0)
(-0.0182059 -0.190596 0)
(0.00298493 -0.253652 0)
(0.00291448 0.0425799 0)
(0.00913318 0.0776991 0)
(0.0145915 0.0893333 0)
(0.0199559 0.0910569 0)
(0.0254505 0.0875674 0)
(0.0308949 0.0805415 0)
(0.0359369 0.0708201 0)
(0.0401845 0.0590681 0)
(0.0432867 0.0459258 0)
(0.0449493 0.0320414 0)
(0.0449493 0.0180969 0)
(0.0433041 0.00475359 0)
(0.039398 -0.00778932 0)
(0.0340687 -0.0192159 0)
(0.0273353 -0.0296415 0)
(0.021147 -0.0396983 0)
(0.00791878 -0.054678 0)
(0.00980991 -0.0971482 0)
(-0.016512 -0.186585 0)
(0.0060555 -0.26204 0)
(0.00195735 0.0368755 0)
(0.00833068 0.0713702 0)
(0.0146891 0.0831115 0)
(0.021575 0.0847101 0)
(0.0288059 0.0811783 0)
(0.0359607 0.0744563 0)
(0.0425342 0.0654674 0)
(0.0480457 0.0548528 0)
(0.0520932 0.0431907 0)
(0.0543617 0.0310586 0)
(0.0546321 0.0190513 0)
(0.0529186 0.00772216 0)
(0.0487401 -0.00297631 0)
(0.0426816 -0.0127858 0)
(0.0349063 -0.0218538 0)
(0.0269223 -0.0308946 0)
(0.0114796 -0.0457315 0)
(0.0149039 -0.087547 0)
(-0.0140025 -0.181475 0)
(0.0103697 -0.268409 0)
(-0.000119997 0.0325237 0)
(0.00546681 0.0650394 0)
(0.0126644 0.0757469 0)
(0.0211013 0.0766974 0)
(0.0301848 0.073017 0)
(0.0391551 0.0667193 0)
(0.0473279 0.0587001 0)
(0.0541486 0.0495188 0)
(0.0591934 0.0396557 0)
(0.0621583 0.0295834 0)
(0.0628593 0.019776 0)
(0.0612717 0.0106681 0)
(0.0574906 0.00241077 0)
(0.0510179 -0.00553254 0)
(0.0426164 -0.012958 0)
(0.033081 -0.0207594 0)
(0.0168155 -0.0357758 0)
(0.0201769 -0.0800264 0)
(-0.00916957 -0.176096 0)
(0.0169805 -0.271866 0)
(-0.00370502 0.0321504 0)
(-0.000592821 0.05883 0)
(0.00821437 0.0672618 0)
(0.0185669 0.0668822 0)
(0.0297815 0.0629291 0)
(0.0407484 0.0572126 0)
(0.0506249 0.0504253 0)
(0.058825 0.0429662 0)
(0.0649462 0.0351787 0)
(0.0687283 0.0274043 0)
(0.0700435 0.0199792 0)
(0.0689018 0.0131972 0)
(0.0654553 0.00721488 0)
(0.0597706 0.00180639 0)
(0.0514909 -0.00393739 0)
(0.0409096 -0.0106361 0)
(0.0258889 -0.0258403 0)
(0.029238 -0.0745856 0)
(0.000819634 -0.170817 0)
(0.0273698 -0.269566 0)
(-0.0093501 0.0401869 0)
(-0.0102645 0.0532778 0)
(0.00106915 0.0571356 0)
(0.0147823 0.0550604 0)
(0.0286119 0.0509811 0)
(0.0418709 0.0461767 0)
(0.0536596 0.0409814 0)
(0.0634501 0.035576 0)
(0.0709279 0.0301398 0)
(0.075927 0.0248726 0)
(0.0784153 0.0199767 0)
(0.0784853 0.0156252 0)
(0.0763234 0.0119225 0)
(0.0721092 0.00886704 0)
(0.0660289 0.00640991 0)
(0.0566763 0.00343494 0)
(0.0477817 -0.0156322 0)
(0.0520104 -0.0695086 0)
(0.0231215 -0.157773 0)
(0.0453155 -0.251231 0)
(-0.0146023 0.0574066 0)
(-0.0186045 0.0422198 0)
(-0.000460703 0.0369035 0)
(0.0191615 0.0350487 0)
(0.0368106 0.0326213 0)
(0.053388 0.0297873 0)
(0.068198 0.0268873 0)
(0.0808937 0.0240293 0)
(0.0913325 0.0212586 0)
(0.0995053 0.0186391 0)
(0.105516 0.0162457 0)
(0.109574 0.0141359 0)
(0.111982 0.0123112 0)
(0.113182 0.0105705 0)
(0.113817 0.00775194 0)
(0.11034 -0.00117828 0)
(0.115297 -0.023309 0)
(0.116925 -0.0628899 0)
(0.0806839 -0.124484 0)
(0.0825341 -0.198404 0)
(0.0666463 0.0582617 0)
(0.0826059 0.0418589 0)
(0.118121 0.0312295 0)
(0.149635 0.0255129 0)
(0.17659 0.0219231 0)
(0.200795 0.0192745 0)
(0.222825 0.017194 0)
(0.242789 0.0155028 0)
(0.260771 0.0140853 0)
(0.276894 0.0128705 0)
(0.291302 0.0118159 0)
(0.304161 0.0108923 0)
(0.315618 0.0100656 0)
(0.325639 0.00923057 0)
(0.333604 0.00787126 0)
(0.338972 0.00407723 0)
(0.331981 -0.0037501 0)
(0.302467 -0.0186132 0)
(0.229869 -0.0485115 0)
(0.167071 -0.104517 0)
)
;

boundaryField
{
    movingWall
    {
        type            fixedValue;
        value           uniform (1 0 0);
    }
    fixedWalls
    {
        type            noSlip;
    }
    frontAndBack
    {
        type            empty;
    }
}


// ************************************************************************* //
