/*--------------------------------*- C++ -*----------------------------------*\
  =========                 |
  \\      /  F ield         | OpenFOAM: The Open Source CFD Toolbox
   \\    /   O peration     | Website:  https://openfoam.org
    \\  /    A nd           | Version:  8
     \\/     M anipulation  |
\*---------------------------------------------------------------------------*/
FoamFile
{
    version     2.0;
    format      ascii;
    class       volScalarField;
    location    "6";
    object      p;
}
// * * * * * * * * * * * * * * * * * * * * * * * * * * * * * * * * * * * * * //

dimensions      [0 2 -2 0 0 0 0];

internalField   nonuniform List<scalar> 
400
(
2.57179e-08
-0.000178377
-0.000382873
-0.000625036
-0.000993409
-0.00149649
-0.00212319
-0.00281055
-0.00345753
-0.00394223
-0.00413532
-0.00390681
-0.00313849
-0.00175915
0.000230221
0.00271484
0.00535408
0.0075252
0.00857149
0.00840373
0.000171574
1.81536e-05
-0.000252153
-0.000571033
-0.000999633
-0.00157677
-0.00228713
-0.00306185
-0.00379464
-0.00436143
-0.0046371
-0.00450203
-0.00384958
-0.00264318
-0.000812073
0.00152662
0.00407031
0.00627973
0.00751438
0.00760647
0.000491064
0.000218103
-0.000157365
-0.000642192
-0.0012747
-0.00206226
-0.00296777
-0.00390939
-0.00477596
-0.00544719
-0.00581264
-0.0057812
-0.00527087
-0.00417754
-0.00251695
-0.000363031
0.00207309
0.00435545
0.00583466
0.00618244
0.000581104
0.000224768
-0.000315195
-0.00102202
-0.00190096
-0.00292447
-0.00402955
-0.00512316
-0.00609637
-0.00684296
-0.00727558
-0.00732529
-0.00692088
-0.00600462
-0.00457549
-0.00266435
-0.00039161
0.00191649
0.00359723
0.00418743
0.000264545
-0.000149277
-0.000825687
-0.00172117
-0.00280321
-0.00401239
-0.00526524
-0.00646137
-0.00749743
-0.00828338
-0.0087539
-0.00886157
-0.00855778
-0.00781996
-0.00664832
-0.00503049
-0.00300143
-0.000766332
0.00100886
0.0018074
-0.000452128
-0.000887124
-0.00164053
-0.00265061
-0.00385706
-0.00517559
-0.00650678
-0.00774537
-0.00879401
-0.00957689
-0.0100468
-0.0101777
-0.00995243
-0.00938119
-0.00846727
-0.00716979
-0.00545767
-0.00340216
-0.00165955
-0.000706554
-0.00141597
-0.00184215
-0.0026187
-0.00367322
-0.00492834
-0.00628335
-0.00762803
-0.00885431
-0.00987015
-0.0106113
-0.0110462
-0.0111707
-0.010998
-0.0105633
-0.00987688
-0.00888887
-0.00753353
-0.00574257
-0.00415208
-0.00310263
-0.00243771
-0.00283885
-0.00360311
-0.00465128
-0.00589831
-0.0072353
-0.00854684
-0.00972413
-0.0106796
-0.0113582
-0.0117418
-0.0118449
-0.0117012
-0.0113629
-0.0108492
-0.0101178
-0.00910956
-0.00762466
-0.00627137
-0.00518043
-0.00337141
-0.00373249
-0.00446552
-0.00547564
-0.00667895
-0.00796552
-0.00921994
-0.0103348
-0.0112259
-0.0118445
-0.0121807
-0.0122535
-0.0121288
-0.0118488
-0.0114432
-0.0108874
-0.0101721
-0.00898327
-0.00790314
-0.00680947
-0.00412873
-0.00443083
-0.00512061
-0.00607387
-0.00721411
-0.00843559
-0.00962759
-0.0106858
-0.0115278
-0.0121063
-0.0124151
-0.0124808
-0.012361
-0.0120967
-0.0117401
-0.0112685
-0.0107796
-0.00983023
-0.00901091
-0.00792269
-0.0046568
-0.00490568
-0.00553039
-0.006412
-0.00747703
-0.00862902
-0.00976407
-0.0107807
-0.0115963
-0.0121602
-0.0124619
-0.0125303
-0.0124094
-0.0121348
-0.0117916
-0.0113143
-0.0110044
-0.0102091
-0.00960312
-0.00849398
-0.00495182
-0.00515541
-0.00570285
-0.00649909
-0.00747936
-0.00855954
-0.00964255
-0.0106287
-0.0114332
-0.0119999
-0.0123094
-0.0123834
-0.0122546
-0.0119682
-0.0115908
-0.0111034
-0.0108584
-0.0101412
-0.0097155
-0.00851525
-0.00505316
-0.00520864
-0.00566231
-0.0063569
-0.00724357
-0.0082503
-0.00928503
-0.0102479
-0.01105
-0.0116285
-0.0119541
-0.0120291
-0.0118929
-0.0115911
-0.0111739
-0.0106566
-0.0103752
-0.00962867
-0.00944022
-0.00796102
-0.00501613
-0.00511224
-0.00544159
-0.00600792
-0.00678849
-0.00772128
-0.0087146
-0.00966442
-0.0104748
-0.011074
-0.0114216
-0.0115067
-0.0113675
-0.0110465
-0.0105846
-0.0100208
-0.00965237
-0.00868138
-0.00888834
-0.00671871
-0.00489908
-0.00491375
-0.00507268
-0.00547535
-0.00613626
-0.00699909
-0.00796451
-0.00891807
-0.00975334
-0.0103879
-0.0107705
-0.0108794
-0.010746
-0.0104039
-0.00989232
-0.00926589
-0.00875646
-0.00754136
-0.00789322
-0.00458778
-0.00476146
-0.00463942
-0.00457367
-0.00477981
-0.00531573
-0.00612269
-0.00708256
-0.00806334
-0.00894493
-0.00963356
-0.0100683
-0.0102196
-0.0100972
-0.0097412
-0.00918969
-0.00849393
-0.00778146
-0.00630171
-0.00619765
-0.00133432
-0.0046717
-0.00426305
-0.00394011
-0.00393654
-0.00436363
-0.00514539
-0.00613216
-0.0071692
-0.00812149
-0.00888461
-0.0093894
-0.00960039
-0.00951248
-0.00916176
-0.00858745
-0.00781413
-0.00680807
-0.00478968
-0.00314377
0.0047422
-0.00463671
-0.00380591
-0.00317211
-0.00297003
-0.00333209
-0.00413376
-0.00518387
-0.00630483
-0.00734859
-0.00820251
-0.00879158
-0.00907584
-0.00904405
-0.00870459
-0.00807836
-0.00718877
-0.00576307
-0.00235455
0.00322084
0.0181599
-0.00512967
-0.00333946
-0.00236192
-0.0020321
-0.00239969
-0.00327035
-0.00441598
-0.00564021
-0.00678491
-0.00773333
-0.00840911
-0.0087719
-0.00881187
-0.00854724
-0.00803119
-0.00722602
-0.00454959
0.00237579
0.0155023
0.0419823
-0.00823493
-0.00209092
-0.000467538
-0.00051043
-0.0011498
-0.00219719
-0.0035058
-0.00488273
-0.00616147
-0.00722478
-0.00799819
-0.00844098
-0.00853316
-0.0082286
-0.00725474
-0.00466705
0.000829171
0.0122401
0.0323721
0.0658267
)
;

boundaryField
{
    movingWall
    {
        type            zeroGradient;
    }
    fixedWalls
    {
        type            zeroGradient;
    }
    frontAndBack
    {
        type            empty;
    }
}


// ************************************************************************* //
