/*--------------------------------*- C++ -*----------------------------------*\
  =========                 |
  \\      /  F ield         | OpenFOAM: The Open Source CFD Toolbox
   \\    /   O peration     | Website:  https://openfoam.org
    \\  /    A nd           | Version:  8
     \\/     M anipulation  |
\*---------------------------------------------------------------------------*/
FoamFile
{
    version     2.0;
    format      ascii;
    class       surfaceScalarField;
    location    "6";
    object      phi;
}
// * * * * * * * * * * * * * * * * * * * * * * * * * * * * * * * * * * * * * //

dimensions      [0 3 -1 0 0 0 0];

internalField   nonuniform List<scalar> 
760
(
2.47192e-07
-2.47195e-07
2.4974e-07
-2.54792e-09
-3.38746e-08
2.83615e-07
-5.80972e-07
5.47097e-07
-1.28889e-06
7.07916e-07
-2.08363e-06
7.94744e-07
-2.90347e-06
8.19841e-07
-3.69701e-06
7.93542e-07
-4.42178e-06
7.24764e-07
-5.04235e-06
6.20576e-07
-5.52827e-06
4.85915e-07
-5.8503e-06
3.22034e-07
-5.97565e-06
1.2535e-07
-5.86502e-06
-1.10631e-07
-5.47378e-06
-3.91245e-07
-4.76225e-06
-7.11532e-07
-3.71114e-06
-1.05111e-06
-2.35842e-06
-1.35272e-06
-9.13008e-07
-1.44541e-06
-9.13008e-07
-2.58839e-07
1.16438e-08
-8.16172e-07
5.54785e-07
-1.56803e-06
1.03548e-06
-2.39349e-06
1.37256e-06
-3.26437e-06
1.57879e-06
-4.13626e-06
1.66663e-06
-4.96468e-06
1.64826e-06
-5.7097e-06
1.53857e-06
-6.33663e-06
1.35169e-06
-6.81598e-06
1.09992e-06
-7.12269e-06
7.92629e-07
-7.23515e-06
4.3449e-07
-7.11614e-06
6.34212e-09
-6.77933e-06
-4.47442e-07
-6.20109e-06
-9.69487e-07
-5.36481e-06
-1.54781e-06
-4.24959e-06
-2.16632e-06
-2.86575e-06
-2.73657e-06
-1.32313e-06
-2.98803e-06
-2.23614e-06
-6.69012e-07
6.80656e-07
-1.49366e-06
1.37944e-06
-2.33176e-06
1.87357e-06
-3.1699e-06
2.2107e-06
-3.98284e-06
2.39174e-06
-4.74126e-06
2.42504e-06
-5.41722e-06
2.32423e-06
-5.98559e-06
2.10693e-06
-6.42601e-06
1.79211e-06
-6.72372e-06
1.39764e-06
-6.86879e-06
9.377e-07
-6.85309e-06
4.18787e-07
-6.687e-06
-1.59751e-07
-6.35199e-06
-7.82444e-07
-5.84342e-06
-1.47806e-06
-5.12764e-06
-2.26359e-06
-4.16536e-06
-3.1286e-06
-2.93022e-06
-3.97171e-06
-1.46157e-06
-4.45668e-06
-3.6977e-06
-7.97861e-07
1.47852e-06
-1.67902e-06
2.2606e-06
-2.5124e-06
2.70695e-06
-3.28868e-06
2.98698e-06
-3.9965e-06
3.09955e-06
-4.61991e-06
3.04846e-06
-5.14368e-06
2.848e-06
-5.55586e-06
2.51911e-06
-5.84932e-06
2.08557e-06
-6.02207e-06
1.57039e-06
-6.07646e-06
9.92092e-07
-6.01831e-06
3.60643e-07
-5.85981e-06
-3.18256e-07
-5.59469e-06
-1.04756e-06
-5.20563e-06
-1.86712e-06
-4.65459e-06
-2.81463e-06
-3.88487e-06
-3.89832e-06
-2.83113e-06
-5.02545e-06
-1.47596e-06
-5.81185e-06
-5.17366e-06
-7.54597e-07
2.23311e-06
-1.5849e-06
3.0909e-06
-2.34862e-06
3.47067e-06
-3.03104e-06
3.6694e-06
-3.62436e-06
3.69287e-06
-4.12037e-06
3.54447e-06
-4.51245e-06
3.24008e-06
-4.79754e-06
2.8042e-06
-4.97732e-06
2.26535e-06
-5.05852e-06
1.65159e-06
-5.05253e-06
9.86097e-07
-4.97476e-06
2.82871e-07
-4.84085e-06
-4.52163e-07
-4.6518e-06
-1.23661e-06
-4.39184e-06
-2.12709e-06
-4.01921e-06
-3.18726e-06
-3.46135e-06
-4.45619e-06
-2.61486e-06
-5.87193e-06
-1.41443e-06
-7.01228e-06
-6.5881e-06
-6.23527e-07
2.85664e-06
-1.34494e-06
3.81231e-06
-2.00256e-06
4.12829e-06
-2.57489e-06
4.24172e-06
-3.05441e-06
4.1724e-06
-3.43617e-06
3.92623e-06
-3.71786e-06
3.52177e-06
-3.90082e-06
2.98715e-06
-3.99109e-06
2.35562e-06
-4.00041e-06
1.66091e-06
-3.94677e-06
9.3245e-07
-3.85424e-06
1.90346e-07
-3.74345e-06
-5.6295e-07
-3.62321e-06
-1.35685e-06
-3.48299e-06
-2.26731e-06
-3.28361e-06
-3.38664e-06
-2.94261e-06
-4.79719e-06
-2.32021e-06
-6.49434e-06
-1.30646e-06
-8.02602e-06
-7.89456e-06
-4.5406e-07
3.3107e-06
-1.03753e-06
4.39579e-06
-1.57182e-06
4.66257e-06
-2.02888e-06
4.69879e-06
-2.40076e-06
4.54427e-06
-2.68375e-06
4.20923e-06
-2.87724e-06
3.71526e-06
-2.984e-06
3.0939e-06
-3.01117e-06
2.3828e-06
-2.97192e-06
1.62166e-06
-2.88695e-06
8.47479e-07
-2.78626e-06
8.96559e-08
-2.6919e-06
-6.57304e-07
-2.61853e-06
-1.43021e-06
-2.56833e-06
-2.31751e-06
-2.51563e-06
-3.43935e-06
-2.37919e-06
-4.93362e-06
-1.98301e-06
-6.89052e-06
-1.17176e-06
-8.83728e-06
-9.06632e-06
-2.73416e-07
3.58412e-06
-7.06999e-07
4.82937e-06
-1.11305e-06
5.06862e-06
-1.45667e-06
5.04241e-06
-1.72971e-06
4.81732e-06
-1.92954e-06
4.40905e-06
-2.05665e-06
3.84237e-06
-2.11436e-06
3.15162e-06
-2.10941e-06
2.37785e-06
-2.05361e-06
1.56586e-06
-1.96489e-06
7.58755e-07
-1.87244e-06
-2.79007e-09
-1.78935e-06
-7.40392e-07
-1.73598e-06
-1.48359e-06
-1.73251e-06
-2.32098e-06
-1.78099e-06
-3.39086e-06
-1.81838e-06
-4.89623e-06
-1.63501e-06
-7.07389e-06
-1.0282e-06
-9.44409e-06
-1.00945e-05
-1.01576e-07
3.68569e-06
-3.78907e-07
5.1067e-06
-6.5849e-07
5.34821e-06
-8.93405e-07
5.27733e-06
-1.0757e-06
4.99962e-06
-1.2043e-06
4.53765e-06
-1.28148e-06
3.91954e-06
-1.31179e-06
3.18193e-06
-1.30164e-06
2.36769e-06
-1.25914e-06
1.52337e-06
-1.19675e-06
6.96366e-07
-1.12593e-06
-7.36081e-08
-1.06897e-06
-7.97357e-07
-1.02489e-06
-1.52767e-06
-1.03259e-06
-2.31329e-06
-1.13028e-06
-3.29317e-06
-1.29728e-06
-4.72924e-06
-1.30066e-06
-7.07051e-06
-8.88596e-07
-9.85615e-06
-1.09831e-05
4.88078e-08
3.63688e-06
-7.29435e-08
5.22845e-06
-2.27422e-07
5.50268e-06
-3.58406e-07
5.40831e-06
-4.54797e-07
5.09601e-06
-5.1733e-07
4.60019e-06
-5.50821e-07
3.95303e-06
-5.62198e-07
3.19331e-06
-5.59567e-07
2.36506e-06
-5.50592e-07
1.51439e-06
-5.38062e-07
6.83837e-07
-5.14489e-07
-9.7181e-08
-4.85997e-07
-8.25849e-07
-4.60946e-07
-1.55272e-06
-4.79357e-07
-2.29487e-06
-5.87617e-07
-3.18491e-06
-8.37706e-07
-4.47915e-06
-9.96169e-07
-6.91204e-06
-7.60392e-07
-1.00919e-05
-1.17435e-05
1.71105e-07
3.46578e-06
1.99962e-07
5.1996e-06
1.66806e-07
5.53584e-06
1.36238e-07
5.43888e-06
1.24501e-07
5.10774e-06
1.29502e-07
4.59519e-06
1.43529e-07
3.939e-06
1.56792e-07
3.18004e-06
1.59424e-07
2.36243e-06
1.43689e-07
1.53013e-06
1.09899e-07
7.17627e-07
7.61509e-08
-6.34328e-08
5.72538e-08
-8.06952e-07
2.7383e-08
-1.52285e-06
-1.24368e-08
-2.25505e-06
-1.58031e-07
-3.03931e-06
-4.42623e-07
-4.19456e-06
-7.25685e-07
-6.62898e-06
-6.44794e-07
-1.01728e-05
-1.23883e-05
2.69585e-07
3.1962e-06
4.27872e-07
5.04131e-06
5.11814e-07
5.4519e-06
5.8287e-07
5.36782e-06
6.59426e-07
5.03119e-06
7.37533e-07
4.51708e-06
8.06121e-07
3.87041e-06
8.5292e-07
3.13324e-06
8.67514e-07
2.34784e-06
8.44085e-07
1.55355e-06
7.84059e-07
7.77653e-07
6.97985e-07
2.26408e-08
6.08366e-07
-7.17333e-07
5.07524e-07
-1.42201e-06
3.78847e-07
-2.12638e-06
1.98215e-07
-2.85868e-06
-8.84867e-08
-3.90785e-06
-4.81428e-07
-6.23604e-06
-5.38443e-07
-1.01158e-05
-1.29267e-05
3.41036e-07
2.85516e-06
6.05324e-07
4.77702e-06
7.97143e-07
5.26008e-06
9.68457e-07
5.19651e-06
1.13563e-06
4.86401e-06
1.29194e-06
4.36077e-06
1.42306e-06
3.7393e-06
1.51458e-06
3.04172e-06
1.55589e-06
2.30652e-06
1.54286e-06
1.56659e-06
1.47781e-06
8.42697e-07
1.36106e-06
1.39398e-07
1.20031e-06
-5.5658e-07
1.00771e-06
-1.22941e-06
7.80223e-07
-1.89889e-06
5.17995e-07
-2.59645e-06
1.95417e-07
-3.58528e-06
-2.53606e-07
-5.78702e-06
-4.36971e-07
-9.93244e-06
-1.33637e-05
3.78238e-07
2.47692e-06
7.20779e-07
4.43448e-06
1.01071e-06
4.97014e-06
1.28309e-06
4.92413e-06
1.54577e-06
4.60134e-06
1.78685e-06
4.1197e-06
1.98846e-06
3.53768e-06
2.13434e-06
2.89584e-06
2.21328e-06
2.22758e-06
2.22039e-06
1.55949e-06
2.15499e-06
9.08097e-07
2.01563e-06
2.78752e-07
1.80361e-06
-3.44563e-07
1.53273e-06
-9.58529e-07
1.20746e-06
-1.57362e-06
8.36489e-07
-2.22548e-06
4.3468e-07
-3.18347e-06
-5.70925e-08
-5.29524e-06
-3.23831e-07
-9.6657e-06
-1.36875e-05
3.66451e-07
2.11047e-06
7.55344e-07
4.04559e-06
1.13579e-06
4.58969e-06
1.51424e-06
4.54569e-06
1.88124e-06
4.23434e-06
2.21608e-06
3.78485e-06
2.49695e-06
3.25681e-06
2.70613e-06
2.68666e-06
2.83199e-06
2.10173e-06
2.8688e-06
1.52267e-06
2.814e-06
9.62895e-07
2.66402e-06
4.28741e-07
2.41431e-06
-9.48588e-08
2.08188e-06
-6.26101e-07
1.67016e-06
-1.16189e-06
1.19342e-06
-1.74874e-06
6.90054e-07
-2.6801e-06
2.10689e-07
-4.81588e-06
-1.20765e-07
-9.33425e-06
-1.38083e-05
2.71564e-07
1.83891e-06
6.82904e-07
3.63425e-06
1.15372e-06
4.11888e-06
1.65091e-06
4.0485e-06
2.13612e-06
3.74912e-06
2.57626e-06
3.34471e-06
2.94582e-06
2.88725e-06
3.22668e-06
2.40579e-06
3.40765e-06
1.92076e-06
3.48318e-06
1.44713e-06
3.45119e-06
9.94894e-07
3.31027e-06
5.69661e-07
3.05078e-06
1.64627e-07
2.673e-06
-2.48319e-07
2.19124e-06
-6.80141e-07
1.62102e-06
-1.17852e-06
1.03158e-06
-2.09066e-06
5.69019e-07
-4.35331e-06
1.57164e-07
-8.92239e-06
-1.36511e-05
4.01199e-08
1.79879e-06
4.68766e-07
3.2056e-06
1.04992e-06
3.53772e-06
1.69126e-06
3.40716e-06
2.31307e-06
3.12731e-06
2.87094e-06
2.78685e-06
3.33824e-06
2.41995e-06
3.69838e-06
2.04566e-06
3.94203e-06
1.67711e-06
4.06528e-06
1.32388e-06
4.0676e-06
9.92578e-07
3.95011e-06
6.87143e-07
3.7078e-06
4.06944e-07
3.32666e-06
1.32817e-07
2.81425e-06
-1.67726e-07
2.20297e-06
-5.67237e-07
1.60429e-06
-1.49199e-06
1.14826e-06
-3.89728e-06
5.47657e-07
-8.32179e-06
-1.31035e-05
-4.28335e-07
2.22712e-06
6.6439e-08
2.71083e-06
8.42408e-07
2.76175e-06
1.66893e-06
2.58064e-06
2.44847e-06
2.34777e-06
3.13709e-06
2.09822e-06
3.713e-06
1.84404e-06
4.16413e-06
1.59453e-06
4.48533e-06
1.35591e-06
4.67644e-06
1.13277e-06
4.74046e-06
9.2856e-07
4.6821e-06
7.455e-07
4.50503e-06
5.84017e-07
4.19853e-06
4.3932e-07
3.76104e-06
2.69763e-07
3.30683e-06
-1.13026e-07
2.90195e-06
-1.08712e-06
2.3741e-06
-3.36942e-06
1.32124e-06
-7.26893e-06
-1.17823e-05
-9.38802e-07
3.16592e-06
-2.26914e-07
1.99894e-06
9.02821e-07
1.63202e-06
1.98944e-06
1.49402e-06
2.97019e-06
1.36703e-06
3.8345e-06
1.23391e-06
4.57189e-06
1.10665e-06
5.17829e-06
9.88125e-07
5.65599e-06
8.78211e-07
6.01144e-06
7.77321e-07
6.25394e-06
6.86058e-07
6.39513e-06
6.04313e-07
6.44988e-06
5.2927e-07
6.44383e-06
4.45362e-07
6.42398e-06
2.89621e-07
6.38127e-06
-7.03165e-08
6.2951e-06
-1.00095e-06
5.45985e-06
-2.53417e-06
3.24137e-06
-5.05045e-06
-8.54088e-06
3.16592e-06
5.16486e-06
6.79688e-06
8.2909e-06
9.65792e-06
1.08918e-05
1.19985e-05
1.29866e-05
1.38648e-05
1.46421e-05
1.53282e-05
1.59325e-05
1.64618e-05
1.69071e-05
1.71968e-05
1.71265e-05
1.61255e-05
1.35913e-05
8.54088e-06
)
;

boundaryField
{
    movingWall
    {
        type            calculated;
        value           uniform 0;
    }
    fixedWalls
    {
        type            calculated;
        value           uniform 0;
    }
    frontAndBack
    {
        type            empty;
        value           nonuniform List<scalar> 0();
    }
}


// ************************************************************************* //
