/*--------------------------------*- C++ -*----------------------------------*\
  =========                 |
  \\      /  F ield         | OpenFOAM: The Open Source CFD Toolbox
   \\    /   O peration     | Website:  https://openfoam.org
    \\  /    A nd           | Version:  8
     \\/     M anipulation  |
\*---------------------------------------------------------------------------*/
FoamFile
{
    version     2.0;
    format      ascii;
    class       volVectorField;
    location    "6";
    object      U;
}
// * * * * * * * * * * * * * * * * * * * * * * * * * * * * * * * * * * * * * //

dimensions      [0 1 -1 0 0 0 0];

internalField   nonuniform List<vector> 
400
(
(0.00303251 -0.0039575 0)
(0.00613501 -0.00365528 0)
(0.003984 -0.00105023 0)
(-0.00511661 0.00324312 0)
(-0.0180499 0.00608176 0)
(-0.0336122 0.00782894 0)
(-0.0501367 0.00869426 0)
(-0.0665317 0.00886623 0)
(-0.0818975 0.00850679 0)
(-0.0954911 0.00773208 0)
(-0.10668 0.00661046 0)
(-0.114861 0.00514833 0)
(-0.119394 0.00327231 0)
(-0.119629 0.000818105 0)
(-0.11458 -0.00248925 0)
(-0.103194 -0.00641941 0)
(-0.0850504 -0.0106444 0)
(-0.0607587 -0.0143247 0)
(-0.0329369 -0.0150664 0)
(-0.00760665 -0.00712702 0)
(-0.000671976 -0.00571977 0)
(-0.00998084 0.00365116 0)
(-0.0232165 0.0131537 0)
(-0.0391046 0.0195427 0)
(-0.0564354 0.0233571 0)
(-0.0742201 0.0251663 0)
(-0.0915033 0.0252655 0)
(-0.107452 0.0239148 0)
(-0.121328 0.0213441 0)
(-0.132509 0.0177462 0)
(-0.140475 0.0132619 0)
(-0.144742 0.00794333 0)
(-0.144781 0.0017 0)
(-0.140078 -0.00571601 0)
(-0.130742 -0.0140916 0)
(-0.116386 -0.0233573 0)
(-0.0965303 -0.0331034 0)
(-0.0713249 -0.0417457 0)
(-0.0425401 -0.044643 0)
(-0.0137773 -0.0304469 0)
(-0.00611973 0.00647387 0)
(-0.0216416 0.019566 0)
(-0.0380762 0.029348 0)
(-0.0550179 0.0361695 0)
(-0.0717591 0.0401013 0)
(-0.0876938 0.0413563 0)
(-0.102221 0.0401972 0)
(-0.114799 0.0369326 0)
(-0.124968 0.0318782 0)
(-0.132384 0.025322 0)
(-0.136827 0.0174895 0)
(-0.138174 0.00849902 0)
(-0.136282 -0.00167336 0)
(-0.131141 -0.0130276 0)
(-0.12271 -0.02552 0)
(-0.110404 -0.0393892 0)
(-0.0934422 -0.0543179 0)
(-0.0712888 -0.0683081 0)
(-0.0448249 -0.0752057 0)
(-0.0160193 -0.0594039 0)
(-0.00771719 0.0217757 0)
(-0.0251237 0.0366291 0)
(-0.0421465 0.0460511 0)
(-0.0583413 0.0522805 0)
(-0.0733133 0.0552881 0)
(-0.086753 0.0551616 0)
(-0.0983234 0.0521635 0)
(-0.107738 0.046671 0)
(-0.114801 0.0391053 0)
(-0.119429 0.0298703 0)
(-0.121669 0.0192922 0)
(-0.121631 0.00756852 0)
(-0.119305 -0.00523624 0)
(-0.115077 -0.019094 0)
(-0.108601 -0.0345438 0)
(-0.0992555 -0.0521227 0)
(-0.0860062 -0.0717387 0)
(-0.0676249 -0.0913629 0)
(-0.0443307 -0.103759 0)
(-0.0160962 -0.0893377 0)
(-0.00708432 0.03727 0)
(-0.0238406 0.0536718 0)
(-0.0397724 0.0620026 0)
(-0.0543087 0.066867 0)
(-0.0671385 0.0682871 0)
(-0.0780978 0.0663223 0)
(-0.0870174 0.06127 0)
(-0.0937878 0.0535832 0)
(-0.098389 0.0437834 0)
(-0.100917 0.032378 0)
(-0.101596 0.0197819 0)
(-0.100703 0.00625838 0)
(-0.0983773 -0.00812203 0)
(-0.0952387 -0.0235567 0)
(-0.0908598 -0.040949 0)
(-0.0846872 -0.0613009 0)
(-0.075484 -0.0850136 0)
(-0.0612763 -0.110434 0)
(-0.0420336 -0.129477 0)
(-0.0149716 -0.118487 0)
(-0.00538502 0.0511446 0)
(-0.0200937 0.0692737 0)
(-0.0339741 0.0762722 0)
(-0.0463546 0.0794366 0)
(-0.0569213 0.0790022 0)
(-0.0655669 0.0750588 0)
(-0.0722055 0.0679523 0)
(-0.0768178 0.0582115 0)
(-0.0794714 0.0464547 0)
(-0.0803516 0.0332966 0)
(-0.0797842 0.0192587 0)
(-0.0781861 0.00468681 0)
(-0.0759294 -0.0103694 0)
(-0.073776 -0.0263788 0)
(-0.0712929 -0.0446713 0)
(-0.068112 -0.0667902 0)
(-0.0629966 -0.0938658 0)
(-0.0530619 -0.125075 0)
(-0.0386403 -0.151653 0)
(-0.0131734 -0.145768 0)
(-0.00328502 0.0621227 0)
(-0.0152221 0.0824697 0)
(-0.0265704 0.0882775 0)
(-0.0365789 0.0897669 0)
(-0.0449091 0.0875115 0)
(-0.0514756 0.0816707 0)
(-0.0562276 0.0726493 0)
(-0.0591805 0.06105 0)
(-0.0604262 0.047589 0)
(-0.0601667 0.0330064 0)
(-0.058751 0.0179654 0)
(-0.0566787 0.00291396 0)
(-0.0545539 -0.0121457 0)
(-0.0530492 -0.0279384 0)
(-0.0518989 -0.0461559 0)
(-0.0510622 -0.0689307 0)
(-0.0497534 -0.0983775 0)
(-0.0438048 -0.135108 0)
(-0.0347518 -0.169841 0)
(-0.0110245 -0.170515 0)
(-0.00115017 0.0695723 0)
(-0.00997143 0.0927734 0)
(-0.0186066 0.0977586 0)
(-0.0262121 0.0978111 0)
(-0.0324172 0.0939637 0)
(-0.0371566 0.0864716 0)
(-0.0404045 0.075801 0)
(-0.0421953 0.062618 0)
(-0.0426218 0.0477207 0)
(-0.0418635 0.0319657 0)
(-0.0402227 0.0161588 0)
(-0.0381618 0.00086603 0)
(-0.0363458 -0.0138061 0)
(-0.0350926 -0.0289468 0)
(-0.034553 -0.0463081 0)
(-0.0349818 -0.0685506 0)
(-0.0369002 -0.0990261 0)
(-0.0342643 -0.140682 0)
(-0.0308468 -0.183897 0)
(-0.00872163 -0.192423 0)
(0.000751284 0.0733552 0)
(-0.00480296 0.100034 0)
(-0.0106778 0.104674 0)
(-0.015949 0.103628 0)
(-0.0201566 0.0985272 0)
(-0.0232708 0.0897437 0)
(-0.0253001 0.0778062 0)
(-0.0263109 0.0634298 0)
(-0.0264066 0.0474669 0)
(-0.0257421 0.0308528 0)
(-0.0245182 0.0145037 0)
(-0.0228467 -0.000913316 0)
(-0.0218123 -0.015328 0)
(-0.0207202 -0.0299704 0)
(-0.0204125 -0.0461384 0)
(-0.0209247 -0.0668084 0)
(-0.0253225 -0.0966456 0)
(-0.0250406 -0.14225 0)
(-0.0272729 -0.193941 0)
(-0.00638724 -0.211485 0)
(0.0021859 0.0738095 0)
(-4.64577e-05 0.104122 0)
(-0.00315244 0.10911 0)
(-0.00618606 0.107336 0)
(-0.00849065 0.10135 0)
(-0.0100799 0.0916871 0)
(-0.0110052 0.0789373 0)
(-0.0113857 0.0638483 0)
(-0.0113617 0.0472846 0)
(-0.0110921 0.0301786 0)
(-0.0107475 0.0134776 0)
(-0.0103145 -0.00201358 0)
(-0.00988755 -0.0164771 0)
(-0.00918116 -0.0309473 0)
(-0.00939869 -0.0461039 0)
(-0.00932167 -0.064681 0)
(-0.0154945 -0.0922741 0)
(-0.0164958 -0.140461 0)
(-0.0242163 -0.200286 0)
(-0.00407795 -0.227879 0)
(0.00319249 0.0716455 0)
(0.0040105 0.105012 0)
(0.00364201 0.111029 0)
(0.00281019 0.10903 0)
(0.00236995 0.102532 0)
(0.00231904 0.0923717 0)
(0.00255508 0.0792373 0)
(0.00289365 0.0639243 0)
(0.00314442 0.0473187 0)
(0.00313713 0.0303285 0)
(0.00277863 0.0137305 0)
(0.00186033 -0.00202537 0)
(0.00138424 -0.0167738 0)
(0.00117421 -0.0311298 0)
(-0.000237327 -0.045755 0)
(-4.69924e-06 -0.0623084 0)
(-0.00747123 -0.0868617 0)
(-0.00871781 -0.135971 0)
(-0.0216867 -0.203317 0)
(-0.00177794 -0.241866 0)
(0.0038807 0.0671843 0)
(0.0073362 0.103083 0)
(0.00945973 0.110497 0)
(0.0107968 0.108611 0)
(0.0122371 0.101872 0)
(0.0138002 0.0915418 0)
(0.0153222 0.0784367 0)
(0.0165554 0.0633885 0)
(0.0172677 0.0472703 0)
(0.0172884 0.0309257 0)
(0.0166151 0.0149673 0)
(0.0150303 -0.000585862 0)
(0.0133055 -0.0155253 0)
(0.0114925 -0.0298219 0)
(0.00868617 -0.0441845 0)
(0.00760879 -0.0591419 0)
(-0.00102822 -0.0807781 0)
(-0.0015512 -0.129196 0)
(-0.0195334 -0.203403 0)
(0.000593711 -0.253703 0)
(0.00425633 0.0609535 0)
(0.0098576 0.0987491 0)
(0.0141443 0.107697 0)
(0.0175745 0.106184 0)
(0.020922 0.0994482 0)
(0.0241842 0.0892247 0)
(0.0271237 0.0764851 0)
(0.0294334 0.0620747 0)
(0.0308509 0.0468087 0)
(0.0312089 0.0314128 0)
(0.0304957 0.0163548 0)
(0.0289029 0.00161124 0)
(0.0259249 -0.0128216 0)
(0.02245 -0.0267404 0)
(0.0179652 -0.0405881 0)
(0.0145789 -0.054937 0)
(0.00425705 -0.0750785 0)
(0.00513393 -0.120225 0)
(-0.0175239 -0.200992 0)
(0.00319346 -0.263554 0)
(0.00423479 0.0535789 0)
(0.0113818 0.0925177 0)
(0.0174509 0.102819 0)
(0.0228957 0.101757 0)
(0.0282187 0.0951923 0)
(0.0332989 0.0853073 0)
(0.0378023 0.0732218 0)
(0.0413647 0.0597704 0)
(0.0436976 0.0456775 0)
(0.0446274 0.031537 0)
(0.044108 0.0177126 0)
(0.0423201 0.00425916 0)
(0.038609 -0.00902235 0)
(0.0338162 -0.0220019 0)
(0.0277339 -0.034958 0)
(0.0218821 -0.0485393 0)
(0.00918195 -0.0680122 0)
(0.0112366 -0.110424 0)
(-0.0153319 -0.196681 0)
(0.00638898 -0.271326 0)
(0.00360165 0.0458584 0)
(0.0115487 0.0849683 0)
(0.0190172 0.0960503 0)
(0.0264616 0.0952783 0)
(0.033913 0.0889615 0)
(0.0409967 0.0796208 0)
(0.0472446 0.068466 0)
(0.0522389 0.0562826 0)
(0.0556749 0.0436846 0)
(0.0573729 0.0311447 0)
(0.0572592 0.018961 0)
(0.055458 0.00724011 0)
(0.0513022 -0.00440348 0)
(0.0455211 -0.0159014 0)
(0.0380714 -0.0274807 0)
(0.0298567 -0.0399409 0)
(0.0151481 -0.0588701 0)
(0.0166872 -0.101042 0)
(-0.0122553 -0.190544 0)
(0.010958 -0.276562 0)
(0.00180178 0.0390099 0)
(0.00968444 0.0767345 0)
(0.0183755 0.0875161 0)
(0.0279808 0.0866007 0)
(0.0378409 0.0805401 0)
(0.0471903 0.0719622 0)
(0.0553961 0.0620373 0)
(0.062002 0.0514448 0)
(0.0667083 0.0406711 0)
(0.0693463 0.0300745 0)
(0.0698423 0.0198909 0)
(0.0682383 0.0102437 0)
(0.0643736 0.000899375 0)
(0.0578737 -0.00864398 0)
(0.0493344 -0.0184313 0)
(0.038988 -0.0294402 0)
(0.023058 -0.0479295 0)
(0.0229383 -0.0922482 0)
(-0.00676385 -0.184358 0)
(0.0178085 -0.278547 0)
(-0.00227115 0.0346 0)
(0.0044494 0.0687364 0)
(0.0150955 0.0772325 0)
(0.0273263 0.0754291 0)
(0.0400227 0.0696154 0)
(0.0519501 0.0620669 0)
(0.0623301 0.053708 0)
(0.0707125 0.0450405 0)
(0.0768382 0.036406 0)
(0.0805771 0.0280509 0)
(0.0818864 0.0201412 0)
(0.0807862 0.0127733 0)
(0.0773725 0.00588863 0)
(0.0711279 -0.00111165 0)
(0.0620662 -0.00881732 0)
(0.0503148 -0.0179082 0)
(0.0347175 -0.03607 0)
(0.0334611 -0.0841723 0)
(0.00359868 -0.176938 0)
(0.0282624 -0.27474 0)
(-0.00864941 0.0397367 0)
(-0.00609628 0.0598743 0)
(0.00920424 0.0647089 0)
(0.0250428 0.0614969 0)
(0.0411689 0.0561753 0)
(0.0560131 0.0500846 0)
(0.0688009 0.043729 0)
(0.0791782 0.0373827 0)
(0.0869809 0.0312318 0)
(0.0921602 0.0254163 0)
(0.0947475 0.0200381 0)
(0.0948231 0.0151637 0)
(0.0924869 0.0108127 0)
(0.0877926 0.00688307 0)
(0.0802464 0.00293657 0)
(0.0689354 -0.00300842 0)
(0.0582512 -0.0240493 0)
(0.0573845 -0.0758346 0)
(0.0260988 -0.161616 0)
(0.0462716 -0.25459 0)
(-0.0150013 0.0560318 0)
(-0.0169601 0.0451316 0)
(0.00730541 0.0414697 0)
(0.0290359 0.0391977 0)
(0.0496154 0.0361113 0)
(0.068237 0.0325505 0)
(0.0843937 0.0289361 0)
(0.0979231 0.0254476 0)
(0.108819 0.0221575 0)
(0.117176 0.0191161 0)
(0.123156 0.0163631 0)
(0.126972 0.0139152 0)
(0.12889 0.0117321 0)
(0.129271 0.00953352 0)
(0.128361 0.00592507 0)
(0.123937 -0.00394356 0)
(0.124964 -0.026116 0)
(0.122279 -0.0651286 0)
(0.0834298 -0.126116 0)
(0.0834742 -0.200075 0)
(0.0658272 0.05648 0)
(0.0807527 0.0405937 0)
(0.117813 0.0305293 0)
(0.151118 0.0253091 0)
(0.180033 0.0219933 0)
(0.205952 0.0194655 0)
(0.229337 0.0174116 0)
(0.250301 0.0156952 0)
(0.268968 0.0142293 0)
(0.28551 0.0129596 0)
(0.300118 0.0118515 0)
(0.312985 0.0108772 0)
(0.324254 0.00999604 0)
(0.333843 0.00906916 0)
(0.341166 0.00748939 0)
(0.344962 0.00349541 0)
(0.336071 -0.004418 0)
(0.304942 -0.019306 0)
(0.231223 -0.049153 0)
(0.167735 -0.105222 0)
)
;

boundaryField
{
    movingWall
    {
        type            fixedValue;
        value           uniform (1 0 0);
    }
    fixedWalls
    {
        type            noSlip;
    }
    frontAndBack
    {
        type            empty;
    }
}


// ************************************************************************* //
