/*--------------------------------*- C++ -*----------------------------------*\
  =========                 |
  \\      /  F ield         | OpenFOAM: The Open Source CFD Toolbox
   \\    /   O peration     | Website:  https://openfoam.org
    \\  /    A nd           | Version:  8
     \\/     M anipulation  |
\*---------------------------------------------------------------------------*/
FoamFile
{
    version     2.0;
    format      ascii;
    class       volScalarField;
    location    "3.5";
    object      p;
}
// * * * * * * * * * * * * * * * * * * * * * * * * * * * * * * * * * * * * * //

dimensions      [0 2 -2 0 0 0 0];

internalField   nonuniform List<scalar> 
400
(
4.94615e-08
-0.000149788
-0.000337903
-0.000547838
-0.00085625
-0.001274
-0.00179845
-0.00238151
-0.0029375
-0.00335788
-0.00352441
-0.00331716
-0.0026234
-0.00136394
0.000463547
0.00275728
0.00520531
0.00722575
0.00820007
0.00804226
0.000140817
1.94508e-05
-0.00020654
-0.000484536
-0.000848407
-0.00133276
-0.00193302
-0.00259639
-0.00323256
-0.00373059
-0.00397506
-0.00385554
-0.0032739
-0.00217243
-0.000494305
0.00166511
0.00402645
0.00608349
0.00723186
0.00731592
0.000414874
0.000192184
-0.00011864
-0.000526288
-0.00106259
-0.00173575
-0.00251818
-0.00334248
-0.00411165
-0.00471661
-0.00505369
-0.00503343
-0.00457399
-0.00359454
-0.0020768
-8.90683e-05
0.00217486
0.00430491
0.0056863
0.00601092
0.000499058
0.000210326
-0.000239986
-0.000838038
-0.00159221
-0.00248217
-0.00345537
-0.00443078
-0.00531039
-0.00599565
-0.00640273
-0.00646415
-0.0061126
-0.00529145
-0.00399025
-0.00223027
-0.000117421
0.00204207
0.00361898
0.00417339
0.000240275
-9.90693e-05
-0.000669533
-0.00143651
-0.00237716
-0.00344282
-0.00456114
-0.00564213
-0.0065905
-0.00732075
-0.00776865
-0.00788713
-0.00763018
-0.00697444
-0.00591565
-0.00443333
-0.00254945
-0.000454675
0.00121732
0.00197118
-0.000368896
-0.000730708
-0.00137351
-0.00224801
-0.00330782
-0.00448166
-0.00568162
-0.00681155
-0.00777998
-0.0085134
-0.00896394
-0.00910389
-0.00891595
-0.00841227
-0.0075964
-0.00641991
-0.00483767
-0.00291141
-0.00126635
-0.000362825
-0.00120614
-0.00156411
-0.00223242
-0.00315288
-0.00426415
-0.00547963
-0.00670067
-0.00782724
-0.00877147
-0.00946958
-0.00988776
-0.0100183
-0.00987205
-0.00948906
-0.00888561
-0.00800544
-0.00676548
-0.00509209
-0.00359101
-0.00259216
-0.0021086
-0.00244744
-0.00310871
-0.00402873
-0.005139
-0.00634509
-0.00754293
-0.00863101
-0.00952453
-0.0101671
-0.0105359
-0.0106397
-0.0105132
-0.0102106
-0.00976333
-0.00912635
-0.00822022
-0.00684188
-0.00556973
-0.0045278
-0.0029476
-0.00325224
-0.0038879
-0.00477704
-0.00585192
-0.00701695
-0.00816799
-0.00920453
-0.0100443
-0.0106354
-0.010961
-0.0110355
-0.0109148
-0.0106517
-0.010294
-0.00981764
-0.00919286
-0.00810044
-0.00709487
-0.00604733
-0.00364314
-0.00389614
-0.00449274
-0.00533124
-0.0063501
-0.00745767
-0.00855449
-0.00954323
-0.0103434
-0.0109032
-0.0112067
-0.0112684
-0.0111423
-0.0108818
-0.0105576
-0.0101505
-0.0097442
-0.00888202
-0.00813455
-0.00708981
-0.00414513
-0.00435342
-0.0048886
-0.00565973
-0.0066073
-0.00764888
-0.00869205
-0.00964276
-0.0104207
-0.0109708
-0.011271
-0.0113355
-0.0112
-0.0109222
-0.0106025
-0.010177
-0.00994538
-0.00923337
-0.00870111
-0.00763322
-0.00444975
-0.0046191
-0.00508105
-0.00576927
-0.006633
-0.00760201
-0.0085911
-0.00950887
-0.0102734
-0.0108246
-0.0111312
-0.0111986
-0.0110572
-0.01077
-0.0104165
-0.00998204
-0.00980734
-0.00918631
-0.00882956
-0.0076698
-0.00459097
-0.0047175
-0.00509011
-0.00567836
-0.00644733
-0.00733888
-0.00827353
-0.00916058
-0.00991473
-0.0104699
-0.0107862
-0.0108537
-0.010712
-0.0104183
-0.0100358
-0.00958098
-0.00937849
-0.00875582
-0.00859896
-0.0071782
-0.00461583
-0.00468879
-0.00494406
-0.0054071
-0.00606808
-0.00687943
-0.0077634
-0.00862644
-0.00937749
-0.00994297
-0.0102748
-0.0103539
-0.0102179
-0.00991813
-0.00950683
-0.00902109
-0.00876036
-0.0079462
-0.00813032
-0.00607359
-0.00457326
-0.00457123
-0.00466912
-0.00497601
-0.00551624
-0.00624997
-0.00709458
-0.00794826
-0.00871116
-0.00930103
-0.00966193
-0.0097676
-0.00964858
-0.00934353
-0.00890206
-0.00837622
-0.00801529
-0.00693939
-0.00736671
-0.00417625
-0.00451359
-0.00437957
-0.0042781
-0.00440238
-0.00481806
-0.00548732
-0.0063135
-0.00718017
-0.00797576
-0.00860873
-0.00901618
-0.00916698
-0.00906945
-0.00876948
-0.00831113
-0.00774753
-0.00722733
-0.00590758
-0.00599154
-0.00116445
-0.00448879
-0.00409114
-0.00376535
-0.00369824
-0.00400528
-0.00463911
-0.00547817
-0.00638638
-0.00723901
-0.00793553
-0.00840677
-0.00861725
-0.00856484
-0.00828584
-0.00783127
-0.00723108
-0.00646765
-0.00468317
-0.00326804
0.0045643
-0.00450716
-0.00373921
-0.00313145
-0.0028863
-0.00312212
-0.00376195
-0.00464929
-0.00562672
-0.00655758
-0.00733428
-0.00788305
-0.00816461
-0.00817046
-0.00791322
-0.00740766
-0.00670694
-0.00562148
-0.00255381
0.00274703
0.0176096
-0.00510804
-0.00341036
-0.00247044
-0.00210316
-0.00232675
-0.00301824
-0.00398565
-0.00505221
-0.0060716
-0.00693273
-0.00756095
-0.00791683
-0.00799333
-0.00781429
-0.00744658
-0.00693964
-0.00462412
0.0019301
0.0147785
0.0411569
-0.00828227
-0.00229782
-0.000706219
-0.000674147
-0.00115763
-0.00201627
-0.00313682
-0.00434669
-0.00549149
-0.00645972
-0.00717862
-0.00760871
-0.00773454
-0.00752421
-0.00674336
-0.00443262
0.000698635
0.0117542
0.031634
0.0649636
)
;

boundaryField
{
    movingWall
    {
        type            zeroGradient;
    }
    fixedWalls
    {
        type            zeroGradient;
    }
    frontAndBack
    {
        type            empty;
    }
}


// ************************************************************************* //
