/*--------------------------------*- C++ -*----------------------------------*\
  =========                 |
  \\      /  F ield         | OpenFOAM: The Open Source CFD Toolbox
   \\    /   O peration     | Website:  https://openfoam.org
    \\  /    A nd           | Version:  8
     \\/     M anipulation  |
\*---------------------------------------------------------------------------*/
FoamFile
{
    version     2.0;
    format      ascii;
    class       surfaceScalarField;
    location    "3.5";
    object      phi;
}
// * * * * * * * * * * * * * * * * * * * * * * * * * * * * * * * * * * * * * //

dimensions      [0 3 -1 0 0 0 0];

internalField   nonuniform List<scalar> 
760
(
2.13228e-07
-2.13233e-07
2.36294e-07
-2.30663e-08
5.79933e-09
2.30495e-07
-4.68506e-07
4.74305e-07
-1.10779e-06
6.39289e-07
-1.84384e-06
7.36047e-07
-2.61664e-06
7.72794e-07
-3.37511e-06
7.58477e-07
-4.07655e-06
7.01439e-07
-4.68495e-06
6.08398e-07
-5.16905e-06
4.84104e-07
-5.49937e-06
3.3032e-07
-5.64467e-06
1.45301e-07
-5.56355e-06
-8.11258e-08
-5.21152e-06
-3.52034e-07
-4.54691e-06
-6.64605e-07
-3.54925e-06
-9.97665e-07
-2.25508e-06
-1.29416e-06
-8.68906e-07
-1.38618e-06
-8.68906e-07
-2.08422e-07
-4.81072e-09
-7.02016e-07
4.70527e-07
-1.39474e-06
9.23215e-07
-2.17146e-06
1.25103e-06
-2.99577e-06
1.46359e-06
-3.8272e-06
1.56747e-06
-4.62436e-06
1.56996e-06
-5.34853e-06
1.48265e-06
-5.96524e-06
1.31814e-06
-6.44467e-06
1.08783e-06
-6.76113e-06
8.00562e-07
-6.89133e-06
4.60517e-07
-6.80413e-06
5.81033e-08
-6.49822e-06
-3.87037e-07
-5.95634e-06
-8.93909e-07
-5.16205e-06
-1.4589e-06
-4.09404e-06
-2.06568e-06
-2.76144e-06
-2.62676e-06
-1.27193e-06
-2.87568e-06
-2.14084e-06
-5.8811e-07
5.83299e-07
-1.35141e-06
1.23383e-06
-2.13821e-06
1.71001e-06
-2.93433e-06
2.04716e-06
-3.7133e-06
2.24256e-06
-4.44555e-06
2.29973e-06
-5.10358e-06
2.22798e-06
-5.66257e-06
2.04163e-06
-6.10182e-06
1.7574e-06
-6.40574e-06
1.39175e-06
-6.56347e-06
9.58291e-07
-6.56716e-06
4.64211e-07
-6.41606e-06
-9.2994e-08
-6.10744e-06
-6.95662e-07
-5.62959e-06
-1.37175e-06
-4.94967e-06
-2.13883e-06
-4.02762e-06
-2.98773e-06
-2.83628e-06
-3.8181e-06
-1.41425e-06
-4.29771e-06
-3.55509e-06
-7.23628e-07
1.30693e-06
-1.54468e-06
2.05488e-06
-2.3322e-06
2.49752e-06
-3.0734e-06
2.78836e-06
-3.75524e-06
2.92441e-06
-4.36081e-06
2.90529e-06
-4.87402e-06
2.74119e-06
-5.28209e-06
2.44971e-06
-5.57691e-06
2.05222e-06
-5.75551e-06
1.57036e-06
-5.81951e-06
1.02229e-06
-5.77398e-06
4.18681e-07
-5.63064e-06
-2.36334e-07
-5.38571e-06
-9.40592e-07
-5.02261e-06
-1.73486e-06
-4.50259e-06
-2.65885e-06
-3.76725e-06
-3.72306e-06
-2.7504e-06
-4.83495e-06
-1.43494e-06
-5.61317e-06
-4.99003e-06
-6.93177e-07
2.0001e-06
-1.47081e-06
2.83251e-06
-2.19462e-06
3.22134e-06
-2.84807e-06
3.4418e-06
-3.42149e-06
3.49783e-06
-3.90513e-06
3.38893e-06
-4.29095e-06
3.12702e-06
-4.5745e-06
2.73325e-06
-4.75612e-06
2.23384e-06
-4.84149e-06
1.65573e-06
-4.84139e-06
1.02218e-06
-4.77105e-06
3.48345e-07
-4.6478e-06
-3.59588e-07
-4.4743e-06
-1.11409e-06
-4.23672e-06
-1.97244e-06
-3.89205e-06
-3.00352e-06
-3.36429e-06
-4.25082e-06
-2.54842e-06
-5.65082e-06
-1.38047e-06
-6.78113e-06
-6.37049e-06
-5.75305e-07
2.57541e-06
-1.25321e-06
3.51042e-06
-1.87808e-06
3.84621e-06
-2.4275e-06
3.99122e-06
-2.8924e-06
3.96274e-06
-3.26624e-06
3.76277e-06
-3.54506e-06
3.40584e-06
-3.72851e-06
2.9167e-06
-3.82097e-06
2.32629e-06
-3.83265e-06
1.66741e-06
-3.78061e-06
9.70143e-07
-3.68911e-06
2.56841e-07
-3.58176e-06
-4.66934e-07
-3.47124e-06
-1.22461e-06
-3.35029e-06
-2.0934e-06
-3.17779e-06
-3.17602e-06
-2.86483e-06
-4.56378e-06
-2.26793e-06
-6.24771e-06
-1.2796e-06
-7.76946e-06
-7.6501e-06
-4.18541e-07
2.99395e-06
-9.67457e-07
4.05933e-06
-1.47625e-06
4.35501e-06
-1.91636e-06
4.43132e-06
-2.2786e-06
4.32498e-06
-2.55793e-06
4.0421e-06
-2.75221e-06
3.60012e-06
-2.86246e-06
3.02696e-06
-2.8938e-06
2.35763e-06
-2.85694e-06
1.63054e-06
-2.77028e-06
8.8349e-07
-2.66312e-06
1.49677e-07
-2.56206e-06
-5.67997e-07
-2.48915e-06
-1.29751e-06
-2.45308e-06
-2.12947e-06
-2.42678e-06
-3.20231e-06
-2.3185e-06
-4.67207e-06
-1.94417e-06
-6.62204e-06
-1.15173e-06
-8.56189e-06
-8.80183e-06
-2.50094e-07
3.24404e-06
-6.57192e-07
4.46643e-06
-1.04442e-06
4.74223e-06
-1.37648e-06
4.76339e-06
-1.64437e-06
4.59286e-06
-1.84445e-06
4.24219e-06
-1.97616e-06
3.73182e-06
-2.04148e-06
3.09227e-06
-2.04513e-06
2.36129e-06
-1.99562e-06
1.58103e-06
-1.90656e-06
7.94426e-07
-1.79971e-06
4.28264e-08
-1.69941e-06
-6.68297e-07
-1.63339e-06
-1.36353e-06
-1.63392e-06
-2.12894e-06
-1.70585e-06
-3.13038e-06
-1.77263e-06
-4.60529e-06
-1.60874e-06
-6.78593e-06
-1.01469e-06
-9.15594e-06
-9.81652e-06
-9.01773e-08
3.33422e-06
-3.4819e-07
4.72444e-06
-6.1471e-07
5.00875e-06
-8.42552e-07
4.99123e-06
-1.02307e-06
4.77338e-06
-1.15456e-06
4.37368e-06
-1.23871e-06
3.81597e-06
-1.27933e-06
3.13289e-06
-1.28142e-06
2.36338e-06
-1.24996e-06
1.54957e-06
-1.19066e-06
7.35127e-07
-1.10764e-06
-4.01974e-08
-1.0246e-06
-7.51333e-07
-9.56713e-07
-1.43142e-06
-9.55131e-07
-2.13052e-06
-1.06808e-06
-3.01743e-06
-1.26505e-06
-4.40832e-06
-1.28628e-06
-6.76471e-06
-8.81313e-07
-9.56091e-06
-1.06978e-05
4.94691e-08
3.28475e-06
-6.10493e-08
4.83496e-06
-2.07333e-07
5.15503e-06
-3.34692e-07
5.11859e-06
-4.31349e-07
4.87004e-06
-4.97519e-07
4.43985e-06
-5.37578e-07
3.85603e-06
-5.57926e-07
3.15324e-06
-5.65524e-07
2.37098e-06
-5.65231e-07
1.54928e-06
-5.54201e-07
7.24098e-07
-5.20654e-07
-7.37449e-08
-4.73371e-07
-7.98616e-07
-4.27273e-07
-1.47752e-06
-4.29681e-07
-2.12812e-06
-5.40835e-07
-2.90627e-06
-8.18758e-07
-4.13039e-06
-9.93389e-07
-6.59008e-06
-7.5931e-07
-9.79499e-06
-1.14571e-05
1.61106e-07
3.12365e-06
1.92332e-07
4.80374e-06
1.62659e-07
5.18471e-06
1.33005e-07
5.14824e-06
1.19829e-07
4.88321e-06
1.2173e-07
4.43795e-06
1.31724e-07
3.84604e-06
1.40852e-07
3.14411e-06
1.40633e-07
2.37119e-06
1.2545e-07
1.56446e-06
9.76037e-08
7.51944e-07
6.91418e-08
-4.5283e-08
5.59484e-08
-7.85422e-07
3.56863e-08
-1.45726e-06
8.47753e-09
-2.10091e-06
-1.32667e-07
-2.76513e-06
-4.37395e-07
-3.82566e-06
-7.34819e-07
-6.29266e-06
-6.50314e-07
-9.87949e-06
-1.21075e-05
2.49144e-07
2.8745e-06
3.99881e-07
4.653e-06
4.81412e-07
5.10318e-06
5.50113e-07
5.07954e-06
6.2403e-07
4.80929e-06
7.00037e-07
4.36195e-06
7.68078e-07
3.778e-06
8.17024e-07
3.09517e-06
8.37678e-07
2.35054e-06
8.24709e-07
1.57743e-06
7.75675e-07
8.00978e-07
6.91274e-07
3.91174e-08
5.9803e-07
-6.92178e-07
4.95338e-07
-1.35456e-06
3.7173e-07
-1.9773e-06
2.01029e-07
-2.59443e-06
-9.9719e-08
-3.52492e-06
-5.04284e-07
-5.88809e-06
-5.50982e-07
-9.83279e-06
-1.26584e-05
3.0971e-07
2.56479e-06
5.55918e-07
4.40679e-06
7.38191e-07
4.9209e-06
9.02896e-07
4.91484e-06
1.06539e-06
4.6468e-06
1.21968e-06
4.20766e-06
1.35248e-06
3.6452e-06
1.45029e-06
2.99735e-06
1.50269e-06
2.29814e-06
1.50349e-06
1.57663e-06
1.44893e-06
8.55542e-07
1.33481e-06
1.53241e-07
1.16935e-06
-5.26719e-07
9.71667e-07
-1.15688e-06
7.44896e-07
-1.75053e-06
4.90453e-07
-2.33999e-06
1.67953e-07
-3.20241e-06
-2.90708e-07
-5.42943e-06
-4.55664e-07
-9.66784e-06
-1.31141e-05
3.35282e-07
2.22951e-06
6.4859e-07
4.09348e-06
9.2061e-07
4.64888e-06
1.18053e-06
4.65491e-06
1.43493e-06
4.39241e-06
1.67237e-06
3.97022e-06
1.87568e-06
3.44188e-06
2.02885e-06
2.84419e-06
2.1197e-06
2.20729e-06
2.14007e-06
1.55626e-06
2.08402e-06
9.11589e-07
1.9469e-06
2.90367e-07
1.7314e-06
-3.11225e-07
1.4566e-06
-8.82082e-07
1.13265e-06
-1.42658e-06
7.7063e-07
-1.97796e-06
3.84683e-07
-2.81647e-06
-9.66353e-08
-4.94811e-06
-3.49168e-07
-9.4153e-06
-1.34633e-05
3.10523e-07
1.91899e-06
6.60238e-07
3.74377e-06
1.01275e-06
4.29637e-06
1.37071e-06
4.29696e-06
1.72361e-06
4.0395e-06
2.05093e-06
3.6429e-06
2.33089e-06
3.16192e-06
2.54517e-06
2.6299e-06
2.6803e-06
2.07217e-06
2.72706e-06
1.5095e-06
2.67894e-06
9.59704e-07
2.53117e-06
4.3814e-07
2.27988e-06
-5.99381e-08
1.94718e-06
-5.4938e-07
1.54118e-06
-1.02057e-06
1.07919e-06
-1.51598e-06
6.05807e-07
-2.34308e-06
1.37198e-07
-4.4795e-06
-1.67704e-07
-9.1104e-06
-1.3631e-05
2.01092e-07
1.7179e-06
5.66588e-07
3.37827e-06
9.97848e-07
3.86511e-06
1.46385e-06
3.83096e-06
1.92645e-06
3.5769e-06
2.35261e-06
3.21675e-06
2.71601e-06
2.79852e-06
2.99704e-06
2.34888e-06
3.18207e-06
1.88713e-06
3.26243e-06
1.42914e-06
3.23349e-06
9.88642e-07
3.09421e-06
5.7742e-07
2.83713e-06
1.97148e-07
2.46374e-06
-1.75987e-07
1.99546e-06
-5.52304e-07
1.45101e-06
-9.71523e-07
9.03786e-07
-1.79586e-06
4.90147e-07
-4.06586e-06
1.23365e-07
-8.74362e-06
-1.35076e-05
-3.81801e-08
1.75608e-06
3.33236e-07
3.00686e-06
8.64123e-07
3.33422e-06
1.46017e-06
3.23491e-06
2.04826e-06
2.98881e-06
2.58343e-06
2.68158e-06
3.03713e-06
2.34482e-06
3.39047e-06
1.99553e-06
3.63145e-06
1.64615e-06
3.75341e-06
1.30719e-06
3.75413e-06
9.87921e-07
3.63553e-06
6.96018e-07
3.39818e-06
4.34499e-07
3.03254e-06
1.89652e-07
2.54224e-06
-6.20015e-08
1.96723e-06
-3.96513e-07
1.42951e-06
-1.25814e-06
1.0534e-06
-3.68975e-06
5.05324e-07
-8.19554e-06
-1.30023e-05
-4.91633e-07
2.24771e-06
-7.98242e-08
2.59505e-06
6.29748e-07
2.62465e-06
1.39671e-06
2.46795e-06
2.13119e-06
2.25432e-06
2.78775e-06
2.02502e-06
3.34202e-06
1.79055e-06
3.77932e-06
1.55823e-06
4.09185e-06
1.33363e-06
4.27725e-06
1.12178e-06
4.33764e-06
9.2753e-07
4.27873e-06
7.54932e-07
4.10699e-06
6.06238e-07
3.81725e-06
4.79391e-07
3.407e-06
3.4825e-07
3.01883e-06
-8.34643e-09
2.70454e-06
-9.43851e-07
2.2705e-06
-3.25572e-06
1.27612e-06
-7.20116e-06
-1.17262e-05
-9.54964e-07
3.20267e-06
-3.41755e-07
1.98184e-06
6.93294e-07
1.5896e-06
1.71334e-06
1.4479e-06
2.6425e-06
1.32517e-06
3.46861e-06
1.19891e-06
4.17971e-06
1.07945e-06
4.76942e-06
9.68517e-07
5.23775e-06
8.65306e-07
5.58944e-06
7.70087e-07
5.83323e-06
6.83734e-07
5.9815e-06
6.0667e-07
6.05079e-06
5.36943e-07
6.06898e-06
4.61199e-07
6.09671e-06
3.20527e-07
6.10745e-06
-1.90907e-08
6.12081e-06
-9.57204e-07
5.36922e-06
-2.50413e-06
3.20145e-06
-5.0334e-06
-8.52471e-06
3.20267e-06
5.18451e-06
6.77411e-06
8.22202e-06
9.54718e-06
1.07461e-05
1.18255e-05
1.27941e-05
1.36594e-05
1.44295e-05
1.51132e-05
1.57199e-05
1.62568e-05
1.6718e-05
1.70385e-05
1.70194e-05
1.60622e-05
1.35581e-05
8.52471e-06
)
;

boundaryField
{
    movingWall
    {
        type            calculated;
        value           uniform 0;
    }
    fixedWalls
    {
        type            calculated;
        value           uniform 0;
    }
    frontAndBack
    {
        type            empty;
        value           nonuniform List<scalar> 0();
    }
}


// ************************************************************************* //
