/*--------------------------------*- C++ -*----------------------------------*\
  =========                 |
  \\      /  F ield         | OpenFOAM: The Open Source CFD Toolbox
   \\    /   O peration     | Website:  https://openfoam.org
    \\  /    A nd           | Version:  8
     \\/     M anipulation  |
\*---------------------------------------------------------------------------*/
FoamFile
{
    version     2.0;
    format      ascii;
    class       volVectorField;
    location    "3.5";
    object      U;
}
// * * * * * * * * * * * * * * * * * * * * * * * * * * * * * * * * * * * * * //

dimensions      [0 1 -1 0 0 0 0];

internalField   nonuniform List<vector> 
400
(
(0.00260402 -0.00326339 0)
(0.00536436 -0.00310809 0)
(0.00390608 -0.00130239 0)
(-0.00358295 0.00230547 0)
(-0.0150402 0.0051125 0)
(-0.0293042 0.006986 0)
(-0.0447792 0.00801178 0)
(-0.0603654 0.00834539 0)
(-0.075159 0.00813998 0)
(-0.0884048 0.00750989 0)
(-0.0994581 0.0065254 0)
(-0.107716 0.00519984 0)
(-0.112541 0.00346773 0)
(-0.113254 0.0011568 0)
(-0.108924 -0.00200502 0)
(-0.0984158 -0.00581728 0)
(-0.0812942 -0.00994453 0)
(-0.0581287 -0.0135556 0)
(-0.0314535 -0.014312 0)
(-0.00710465 -0.00667463 0)
(-0.000345246 -0.00517957 0)
(-0.00814606 0.00244843 0)
(-0.0203804 0.0112525 0)
(-0.0351789 0.0175189 0)
(-0.0514866 0.0214847 0)
(-0.0683739 0.0235696 0)
(-0.0849365 0.0239985 0)
(-0.100368 0.0229942 0)
(-0.113941 0.0207654 0)
(-0.125028 0.0174923 0)
(-0.133092 0.0133085 0)
(-0.137649 0.00826843 0)
(-0.138188 0.00230414 0)
(-0.134157 -0.004789 0)
(-0.125472 -0.0129174 0)
(-0.111905 -0.0219696 0)
(-0.0929518 -0.0315264 0)
(-0.0687434 -0.0400195 0)
(-0.0409877 -0.0428873 0)
(-0.0131205 -0.029023 0)
(-0.00502998 0.00516046 0)
(-0.019323 0.0172278 0)
(-0.0346836 0.0265615 0)
(-0.0506885 0.0332918 0)
(-0.0666587 0.0374372 0)
(-0.0819835 0.0390942 0)
(-0.0960687 0.0384347 0)
(-0.108378 0.035708 0)
(-0.11845 0.0311913 0)
(-0.125927 0.0251493 0)
(-0.130568 0.0177946 0)
(-0.132225 0.00924356 0)
(-0.13073 -0.000511728 0)
(-0.125965 -0.0115008 0)
(-0.118113 -0.0236522 0)
(-0.106478 -0.0372023 0)
(-0.0902849 -0.0518482 0)
(-0.0689848 -0.065615 0)
(-0.0434116 -0.0724325 0)
(-0.0154386 -0.0569617 0)
(-0.00673195 0.019072 0)
(-0.0229472 0.033106 0)
(-0.038935 0.042321 0)
(-0.0543276 0.0486483 0)
(-0.0686935 0.0520271 0)
(-0.0816983 0.052459 0)
(-0.0929898 0.0501205 0)
(-0.102266 0.0453207 0)
(-0.109311 0.0384333 0)
(-0.114021 0.0298334 0)
(-0.116417 0.0198361 0)
(-0.116597 0.00864196 0)
(-0.11457 -0.00368253 0)
(-0.110678 -0.017124 0)
(-0.104669 -0.0321306 0)
(-0.0958988 -0.0492882 0)
(-0.08331 -0.0685398 0)
(-0.065656 -0.0878735 0)
(-0.0431026 -0.100127 0)
(-0.0156294 -0.0860154 0)
(-0.00629866 0.0332381 0)
(-0.0220023 0.049034 0)
(-0.0370131 0.0574113 0)
(-0.0508747 0.0625951 0)
(-0.0632262 0.0645718 0)
(-0.0738717 0.0633226 0)
(-0.0826146 0.0590634 0)
(-0.0893176 0.0521791 0)
(-0.0939323 0.043143 0)
(-0.0965278 0.0324363 0)
(-0.0973056 0.0204689 0)
(-0.0965396 0.00751463 0)
(-0.0944001 -0.00633489 0)
(-0.0915103 -0.021233 0)
(-0.0875198 -0.0380624 0)
(-0.0818619 -0.0578927 0)
(-0.0732455 -0.0811857 0)
(-0.0596666 -0.10628 0)
(-0.0410062 -0.12513 0)
(-0.0146183 -0.114422 0)
(-0.00479453 0.0459928 0)
(-0.0186229 0.0636625 0)
(-0.0317348 0.0709468 0)
(-0.0435731 0.0746429 0)
(-0.0537765 0.0749422 0)
(-0.0622082 0.0718571 0)
(-0.0687509 0.065654 0)
(-0.0733519 0.0567951 0)
(-0.0760444 0.0458533 0)
(-0.0769795 0.0334238 0)
(-0.0764529 0.0200339 0)
(-0.0748694 0.00605433 0)
(-0.0726292 -0.00842296 0)
(-0.0706036 -0.0237825 0)
(-0.0684254 -0.0413617 0)
(-0.0657291 -0.0628426 0)
(-0.061169 -0.089471 0)
(-0.0518081 -0.120371 0)
(-0.037812 -0.146734 0)
(-0.0129231 -0.141102 0)
(-0.00287763 0.0561114 0)
(-0.0141041 0.0760651 0)
(-0.0248425 0.0823628 0)
(-0.0344396 0.0845708 0)
(-0.042515 0.0832069 0)
(-0.0489602 0.0783504 0)
(-0.053696 0.0703247 0)
(-0.0567056 0.0596637 0)
(-0.0580435 0.0470364 0)
(-0.0578659 0.0331645 0)
(-0.0564683 0.0187292 0)
(-0.0543011 0.00423989 0)
(-0.0519677 -0.0102031 0)
(-0.0504009 -0.0252002 0)
(-0.049412 -0.0424802 0)
(-0.0490227 -0.0644411 0)
(-0.0482679 -0.0934285 0)
(-0.0428906 -0.129939 0)
(-0.0341147 -0.164485 0)
(-0.0108635 -0.165386 0)
(-0.000918533 0.0629577 0)
(-0.00918417 0.0857524 0)
(-0.0173579 0.091397 0)
(-0.024671 0.0923279 0)
(-0.0307177 0.0895103 0)
(-0.0354182 0.0831158 0)
(-0.0387257 0.0735257 0)
(-0.0406521 0.0613313 0)
(-0.0412601 0.0472735 0)
(-0.0406787 0.032177 0)
(-0.0391203 0.0168672 0)
(-0.036916 0.00201822 0)
(-0.034654 -0.0121318 0)
(-0.033094 -0.0263337 0)
(-0.032471 -0.0424236 0)
(-0.0332272 -0.063537 0)
(-0.0356897 -0.0934997 0)
(-0.0336719 -0.135105 0)
(-0.0303938 -0.178229 0)
(-0.00863538 -0.186962 0)
(0.000806972 0.0663791 0)
(-0.0043325 0.0925559 0)
(-0.00987664 0.097993 0)
(-0.0149561 0.0979596 0)
(-0.0190815 0.0940067 0)
(-0.0222147 0.0864232 0)
(-0.0243514 0.0756504 0)
(-0.0255473 0.0623225 0)
(-0.0258906 0.0472161 0)
(-0.0254915 0.0311967 0)
(-0.0244424 0.0151555 0)
(-0.0227379 -0.00012299 0)
(-0.0210954 -0.0141987 0)
(-0.0195267 -0.0278058 0)
(-0.0188784 -0.0423307 0)
(-0.0194727 -0.0613841 0)
(-0.0243398 -0.0905167 0)
(-0.0247571 -0.136301 0)
(-0.0270026 -0.188075 0)
(-0.00636194 -0.205817 0)
(0.00207282 0.0667225 0)
(0.000110118 0.096313 0)
(-0.00278824 0.102219 0)
(-0.00570953 0.101565 0)
(-0.00798519 0.0968205 0)
(-0.00962001 0.0884399 0)
(-0.0106548 0.0769291 0)
(-0.0112022 0.062953 0)
(-0.0113969 0.0472881 0)
(-0.0113644 0.0307546 0)
(-0.0111599 0.0141872 0)
(-0.0105719 -0.00154005 0)
(-0.0097764 -0.0158656 0)
(-0.00868586 -0.0293163 0)
(-0.00851957 -0.0426115 0)
(-0.00826181 -0.0590653 0)
(-0.0147259 -0.0855572 0)
(-0.0165114 -0.134165 0)
(-0.0241363 -0.194333 0)
(-0.00410186 -0.222129 0)
(0.00293961 0.0646481 0)
(0.00385495 0.0970659 0)
(0.00355222 0.104007 0)
(0.00276409 0.103206 0)
(0.0023129 0.0980171 0)
(0.00221065 0.0891992 0)
(0.00236902 0.0773561 0)
(0.00261641 0.0632009 0)
(0.00277327 0.0475223 0)
(0.00269861 0.031092 0)
(0.00239588 0.0145328 0)
(0.001717 -0.00161761 0)
(0.00130639 -0.016378 0)
(0.00122802 -0.0298269 0)
(2.17674e-05 -0.0425951 0)
(0.000534489 -0.0567169 0)
(-0.00695165 -0.0796307 0)
(-0.00902299 -0.129353 0)
(-0.0218171 -0.197391 0)
(-0.00184211 -0.236161 0)
(0.00350237 0.0604833 0)
(0.00686539 0.0951857 0)
(0.00889108 0.103461 0)
(0.0101871 0.102801 0)
(0.0115727 0.0973998 0)
(0.0130804 0.0884227 0)
(0.0145649 0.0766024 0)
(0.0157984 0.0626849 0)
(0.0165673 0.0474387 0)
(0.0167189 0.0315738 0)
(0.0162809 0.0156133 0)
(0.0150132 -0.0001838 0)
(0.013188 -0.0150121 0)
(0.0112732 -0.0284778 0)
(0.00845589 -0.041173 0)
(0.0075438 -0.0537793 0)
(-0.000871289 -0.0731579 0)
(-0.00214292 -0.122315 0)
(-0.0199063 -0.197618 0)
(0.000497477 -0.248167 0)
(0.00375381 0.0547621 0)
(0.00905421 0.0910994 0)
(0.0130618 0.100773 0)
(0.0163405 0.100458 0)
(0.0195719 0.0950445 0)
(0.0227586 0.0861418 0)
(0.0256832 0.0746312 0)
(0.0280585 0.0612725 0)
(0.0296345 0.0467815 0)
(0.0302358 0.0317831 0)
(0.0298124 0.0167446 0)
(0.028444 0.00192338 0)
(0.025431 -0.012245 0)
(0.0217995 -0.0253152 0)
(0.0171888 -0.0375956 0)
(0.0139288 -0.0497045 0)
(0.00384323 -0.0673185 0)
(0.00425389 -0.113205 0)
(-0.0181562 -0.195427 0)
(0.0030726 -0.258312 0)
(0.00360256 0.048122 0)
(0.0102214 0.0853314 0)
(0.0158174 0.0961606 0)
(0.0209699 0.0962113 0)
(0.0260841 0.0909075 0)
(0.0310372 0.0822693 0)
(0.0355113 0.0713199 0)
(0.0391538 0.0588129 0)
(0.041674 0.0453943 0)
(0.0428654 0.0316064 0)
(0.042611 0.0178783 0)
(0.040985 0.00452556 0)
(0.0372704 -0.00836972 0)
(0.0323532 -0.0204857 0)
(0.0261492 -0.0319768 0)
(0.0205178 -0.0434607 0)
(0.00793627 -0.0604526 0)
(0.0101526 -0.103316 0)
(-0.0161967 -0.191413 0)
(0.00622086 -0.266553 0)
(0.0028248 0.0413827 0)
(0.0100049 0.0784687 0)
(0.0168102 0.0898418 0)
(0.0237898 0.0900477 0)
(0.030895 0.084885 0)
(0.0377548 0.0766782 0)
(0.0439106 0.0665379 0)
(0.0489418 0.0551802 0)
(0.0525237 0.0431668 0)
(0.0544286 0.0309605 0)
(0.0545091 0.0189483 0)
(0.0528103 0.00744485 0)
(0.0486828 -0.00373525 0)
(0.0428427 -0.0143633 0)
(0.0353639 -0.0245725 0)
(0.0275308 -0.035086 0)
(0.0127397 -0.0517602 0)
(0.0155447 -0.0939253 0)
(-0.013351 -0.185949 0)
(0.0106601 -0.272518 0)
(0.000872388 0.0357243 0)
(0.00772896 0.0711748 0)
(0.0156212 0.081986 0)
(0.0245456 0.0818735 0)
(0.0338644 0.0768118 0)
(0.0428389 0.0692148 0)
(0.050837 0.0601592 0)
(0.0573817 0.0502684 0)
(0.0621361 0.0399992 0)
(0.0648771 0.0297238 0)
(0.0654699 0.0197628 0)
(0.0639028 0.0103914 0)
(0.0601118 0.0015763 0)
(0.0536409 -0.00716376 0)
(0.0452304 -0.0157298 0)
(0.0354253 -0.0250156 0)
(0.0195032 -0.0415759 0)
(0.0213666 -0.0859323 0)
(-0.00812911 -0.180224 0)
(0.017387 -0.275367 0)
(-0.00306714 0.0330881 0)
(0.00209351 0.0641247 0)
(0.0118725 0.0726146 0)
(0.0231555 0.0714541 0)
(0.0350546 0.0664346 0)
(0.0464044 0.0596702 0)
(0.0564154 0.0520113 0)
(0.0645951 0.0439154 0)
(0.0706334 0.0357079 0)
(0.0743444 0.0276563 0)
(0.0756372 0.0199924 0)
(0.0745121 0.0129099 0)
(0.0710773 0.00646424 0)
(0.0651187 0.000220539 0)
(0.0563532 -0.00666732 0)
(0.0452353 -0.0144953 0)
(0.0300259 -0.0308901 0)
(0.0311902 -0.0793147 0)
(0.00211209 -0.173988 0)
(0.0278271 -0.272372 0)
(-0.00909769 0.0397861 0)
(-0.00819608 0.0566612 0)
(0.00545778 0.0612283 0)
(0.0202403 0.0585556 0)
(0.0352727 0.0537759 0)
(0.0493167 0.0482326 0)
(0.0615614 0.0423839 0)
(0.0715872 0.0364659 0)
(0.079172 0.0306535 0)
(0.0842164 0.0251031 0)
(0.0867173 0.0199582 0)
(0.0867512 0.0153399 0)
(0.0844481 0.0113184 0)
(0.0798898 0.00785758 0)
(0.073058 0.00478663 0)
(0.0622683 0.000511659 0)
(0.05283 -0.0197328 0)
(0.0546318 -0.0727173 0)
(0.0245949 -0.159848 0)
(0.0458327 -0.253142 0)
(-0.014914 0.0565944 0)
(-0.0178618 0.0435983 0)
(0.00347529 0.0393062 0)
(0.0243223 0.0372952 0)
(0.0435866 0.0345198 0)
(0.0612595 0.0312841 0)
(0.0767668 0.0279889 0)
(0.0898705 0.0247869 0)
(0.100512 0.0217375 0)
(0.108744 0.0188951 0)
(0.114704 0.0163148 0)
(0.118604 0.0140346 0)
(0.120735 0.0120393 0)
(0.121517 0.0100987 0)
(0.121421 0.00697798 0)
(0.117398 -0.00239251 0)
(0.120225 -0.0246555 0)
(0.119725 -0.0640502 0)
(0.0821745 -0.125418 0)
(0.0830887 -0.199419 0)
(0.0661776 0.0573138 0)
(0.0815851 0.0411479 0)
(0.117823 0.030806 0)
(0.150262 0.0253499 0)
(0.178255 0.021913 0)
(0.203373 0.0193392 0)
(0.226123 0.0172827 0)
(0.246615 0.0155867 0)
(0.264958 0.014151 0)
(0.281302 0.0129136 0)
(0.295819 0.0118364 0)
(0.30869 0.0108913 0)
(0.320063 0.0100411 0)
(0.329885 0.00916339 0)
(0.337525 0.00769165 0)
(0.342263 0.00374596 0)
(0.334336 -0.00412912 0)
(0.304002 -0.0190123 0)
(0.230778 -0.0489055 0)
(0.167541 -0.104977 0)
)
;

boundaryField
{
    movingWall
    {
        type            fixedValue;
        value           uniform (1 0 0);
    }
    fixedWalls
    {
        type            noSlip;
    }
    frontAndBack
    {
        type            empty;
    }
}


// ************************************************************************* //
