/*--------------------------------*- C++ -*----------------------------------*\
  =========                 |
  \\      /  F ield         | OpenFOAM: The Open Source CFD Toolbox
   \\    /   O peration     | Website:  https://openfoam.org
    \\  /    A nd           | Version:  8
     \\/     M anipulation  |
\*---------------------------------------------------------------------------*/
FoamFile
{
    version     2.0;
    format      ascii;
    class       volScalarField;
    location    "7";
    object      p;
}
// * * * * * * * * * * * * * * * * * * * * * * * * * * * * * * * * * * * * * //

dimensions      [0 2 -2 0 0 0 0];

internalField   nonuniform List<scalar> 
400
(
1.63255e-08
-0.000180092
-0.000385703
-0.000630106
-0.00100255
-0.00151136
-0.0021448
-0.0028389
-0.0034916
-0.00398014
-0.00417448
-0.00394404
-0.00317042
-0.00178314
0.00021626
0.00271201
0.00536172
0.00754059
0.00859032
0.00842186
0.000173733
1.79365e-05
-0.000255157
-0.000576733
-0.00100971
-0.00159305
-0.00231067
-0.00309258
-0.00383146
-0.00440238
-0.00467955
-0.00454285
-0.00388525
-0.0026716
-0.000830769
0.00151852
0.00407231
0.0062897
0.00752865
0.00762101
0.000496074
0.000219822
-0.000159936
-0.000649885
-0.00128878
-0.0020839
-0.00299746
-0.00394666
-0.00481936
-0.00549454
-0.00586129
-0.00582836
-0.00531375
-0.00421248
-0.00254258
-0.000378611
0.00206721
0.00435766
0.00584188
0.00619071
0.00058655
0.000225736
-0.000320142
-0.00103415
-0.00192132
-0.00295362
-0.00406735
-0.00516864
-0.00614784
-0.00689815
-0.00733192
-0.00738006
-0.00697118
-0.00604772
-0.00460976
-0.0026891
-0.000407118
0.00190902
0.00359518
0.00418709
0.000266234
-0.000152522
-0.0008359
-0.00173987
-0.00283125
-0.00404995
-0.00531173
-0.00651555
-0.00755745
-0.00834701
-0.00881867
-0.00892485
-0.00861677
-0.00787217
-0.00669211
-0.00506524
-0.00302744
-0.000784552
0.000996166
0.00179692
-0.000457479
-0.000897318
-0.00165801
-0.0026771
-0.00389335
-0.00522166
-0.00656186
-0.00780808
-0.00886251
-0.00964905
-0.0101203
-0.01025
-0.0100209
-0.00944328
-0.00852118
-0.00721492
-0.00549449
-0.0034315
-0.00168343
-0.000727859
-0.00142971
-0.00186041
-0.00264416
-0.0037077
-0.00497266
-0.00633743
-0.00769107
-0.00892496
-0.00994673
-0.0106919
-0.0111286
-0.0112523
-0.0110763
-0.0106356
-0.00994121
-0.00894446
-0.00758103
-0.00578276
-0.00418688
-0.00313461
-0.00245951
-0.0028648
-0.003636
-0.00469299
-0.00594968
-0.0072963
-0.00861673
-0.00980168
-0.0107633
-0.0114465
-0.0118325
-0.0119347
-0.0117886
-0.0114451
-0.0109235
-0.0101833
-0.009167
-0.0076748
-0.00631608
-0.00522213
-0.00339975
-0.00376461
-0.00450433
-0.00552301
-0.00673576
-0.00803179
-0.00929503
-0.0104176
-0.0113151
-0.0119386
-0.0122778
-0.0123517
-0.0122245
-0.0119393
-0.0115258
-0.0109612
-0.0102378
-0.0090417
-0.00795597
-0.00685915
-0.00416144
-0.0044669
-0.00516318
-0.00612476
-0.00727424
-0.00850505
-0.00970583
-0.0107718
-0.0116203
-0.0122039
-0.0125159
-0.0125829
-0.0124612
-0.0121922
-0.0118282
-0.011348
-0.0108509
-0.00989443
-0.00906924
-0.00797778
-0.00469144
-0.00494315
-0.00557419
-0.00646392
-0.00753806
-0.00869933
-0.00984313
-0.0108675
-0.0116896
-0.0122586
-0.0125635
-0.0126331
-0.0125106
-0.0122316
-0.0118815
-0.0113965
-0.011078
-0.0102757
-0.00966353
-0.00855121
-0.0049859
-0.00519191
-0.00574542
-0.00654961
-0.00753888
-0.00862831
-0.0097201
-0.0107141
-0.011525
-0.0120966
-0.0124091
-0.012484
-0.0123537
-0.012063
-0.011679
-0.0111836
-0.0109307
-0.0102058
-0.00977432
-0.00857117
-0.00508459
-0.00524208
-0.00570146
-0.00640377
-0.00729933
-0.00831531
-0.0093589
-0.0103297
-0.0111382
-0.0117214
-0.0120499
-0.0121254
-0.0119872
-0.0116809
-0.0112569
-0.0107314
-0.0104419
-0.00968592
-0.00949495
-0.00801201
-0.00504339
-0.00514107
-0.00547553
-0.00604917
-0.00683844
-0.0077805
-0.00878284
-0.0097407
-0.0105577
-0.0111616
-0.0115118
-0.011597
-0.0114554
-0.0111293
-0.01066
-0.0100875
-0.00970959
-0.00872705
-0.0089365
-0.00675951
-0.00492137
-0.00493704
-0.00510013
-0.00550935
-0.00617863
-0.00705076
-0.00802543
-0.00898733
-0.00982943
-0.0104688
-0.0108539
-0.0109625
-0.0108261
-0.0104783
-0.00995863
-0.00932247
-0.00880148
-0.00757656
-0.0079249
-0.00461197
-0.00477868
-0.004657
-0.0045938
-0.00480532
-0.00534916
-0.00616548
-0.00713493
-0.00812449
-0.00901328
-0.00970699
-0.0101442
-0.010295
-0.0101693
-0.00980699
-0.00924631
-0.00853919
-0.00781291
-0.00632246
-0.00620774
-0.00134268
-0.00468422
-0.00427504
-0.00395236
-0.00395271
-0.00438723
-0.00517854
-0.00617538
-0.00722177
-0.00818181
-0.00895042
-0.00945796
-0.00966857
-0.0095769
-0.00921944
-0.00863497
-0.00784827
-0.00682556
-0.0047923
-0.00313331
0.00475511
-0.00464591
-0.00381093
-0.00317605
-0.00297637
-0.00334566
-0.00415733
-0.00521818
-0.00634919
-0.00740135
-0.00826129
-0.00885352
-0.00913766
-0.00910224
-0.00875561
-0.00811963
-0.00721651
-0.00576868
-0.00233927
0.00325172
0.0181944
-0.00513298
-0.00333715
-0.00235704
-0.0020288
-0.00240434
-0.00328582
-0.00444297
-0.00567801
-0.00683182
-0.00778688
-0.00846633
-0.00882941
-0.00886606
-0.00859439
-0.00806717
-0.00724054
-0.00454198
0.0024052
0.0155472
0.0420317
-0.00823422
-0.00208133
-0.000455323
-0.00050136
-0.00114919
-0.00220788
-0.00352858
-0.00491692
-0.00620536
-0.00727589
-0.00805349
-0.00849704
-0.00858617
-0.00827415
-0.00728682
-0.00468169
0.000840109
0.0122722
0.0324174
0.0658777
)
;

boundaryField
{
    movingWall
    {
        type            zeroGradient;
    }
    fixedWalls
    {
        type            zeroGradient;
    }
    frontAndBack
    {
        type            empty;
    }
}


// ************************************************************************* //
