/*--------------------------------*- C++ -*----------------------------------*\
  =========                 |
  \\      /  F ield         | OpenFOAM: The Open Source CFD Toolbox
   \\    /   O peration     | Website:  https://openfoam.org
    \\  /    A nd           | Version:  8
     \\/     M anipulation  |
\*---------------------------------------------------------------------------*/
FoamFile
{
    version     2.0;
    format      ascii;
    class       surfaceScalarField;
    location    "7";
    object      phi;
}
// * * * * * * * * * * * * * * * * * * * * * * * * * * * * * * * * * * * * * //

dimensions      [0 3 -1 0 0 0 0];

internalField   nonuniform List<scalar> 
760
(
2.4922e-07
-2.49221e-07
2.50509e-07
-1.28982e-09
-3.65597e-08
2.87069e-07
-5.88169e-07
5.51609e-07
-1.30029e-06
7.12121e-07
-2.09858e-06
7.98286e-07
-2.9212e-06
8.22624e-07
-3.71675e-06
7.95549e-07
-4.44276e-06
7.26009e-07
-5.06385e-06
6.21094e-07
-5.54961e-06
4.85755e-07
-5.87083e-06
3.2122e-07
-5.99463e-06
1.23803e-07
-5.88189e-06
-1.12737e-07
-5.48804e-06
-3.93857e-07
-4.77359e-06
-7.14451e-07
-3.71938e-06
-1.05421e-06
-2.36349e-06
-1.35589e-06
-9.15075e-07
-1.44841e-06
-9.15075e-07
-2.62002e-07
1.27806e-08
-8.23438e-07
5.60146e-07
-1.57883e-06
1.04246e-06
-2.4073e-06
1.38008e-06
-3.28105e-06
1.58587e-06
-4.1554e-06
1.67263e-06
-4.98569e-06
1.65291e-06
-5.7319e-06
1.54176e-06
-6.35932e-06
1.35343e-06
-6.83848e-06
1.10025e-06
-7.14437e-06
7.91642e-07
-7.25546e-06
4.32313e-07
-7.13421e-06
2.5523e-09
-6.79524e-06
-4.51704e-07
-6.2146e-06
-9.74498e-07
-5.37571e-06
-1.55334e-06
-4.25775e-06
-2.17217e-06
-2.87111e-06
-2.74253e-06
-1.32573e-06
-2.99379e-06
-2.24081e-06
-6.74086e-07
6.86866e-07
-1.50252e-06
1.38858e-06
-2.34385e-06
1.88379e-06
-3.18463e-06
2.22087e-06
-3.99972e-06
2.40095e-06
-4.75979e-06
2.43271e-06
-5.43688e-06
2.33001e-06
-6.00584e-06
2.11071e-06
-6.4463e-06
1.7939e-06
-6.74357e-06
1.39752e-06
-6.88773e-06
9.35808e-07
-6.87065e-06
4.1523e-07
-6.70339e-06
-1.64711e-07
-6.36649e-06
-7.88598e-07
-5.85576e-06
-1.48523e-06
-5.13763e-06
-2.27147e-06
-4.17291e-06
-3.13689e-06
-2.93529e-06
-3.98015e-06
-1.46412e-06
-4.46496e-06
-3.70492e-06
-8.02525e-07
1.48939e-06
-1.68748e-06
2.27354e-06
-2.52382e-06
2.72012e-06
-3.30241e-06
2.99946e-06
-4.01199e-06
3.11053e-06
-4.6367e-06
3.05741e-06
-5.16131e-06
2.85463e-06
-5.57394e-06
2.52334e-06
-5.86748e-06
2.08744e-06
-6.03999e-06
1.57002e-06
-6.0938e-06
9.89621e-07
-6.03474e-06
3.56167e-07
-5.87499e-06
-3.24456e-07
-5.60816e-06
-1.05544e-06
-5.217e-06
-1.87638e-06
-4.6637e-06
-2.82478e-06
-3.8917e-06
-3.90888e-06
-2.83574e-06
-5.03611e-06
-1.4783e-06
-5.82241e-06
-5.18322e-06
-7.58531e-07
2.24792e-06
-1.59226e-06
3.10727e-06
-2.35866e-06
3.48652e-06
-3.04313e-06
3.68393e-06
-3.638e-06
3.70541e-06
-4.13515e-06
3.55456e-06
-4.52805e-06
3.24752e-06
-4.8137e-06
2.80899e-06
-4.99383e-06
2.26757e-06
-5.07516e-06
1.65135e-06
-5.06898e-06
9.83447e-07
-4.99063e-06
2.77818e-07
-4.85558e-06
-4.5951e-07
-4.66478e-06
-1.24623e-06
-4.40258e-06
-2.13858e-06
-4.02756e-06
-3.1998e-06
-3.46745e-06
-4.46899e-06
-2.61895e-06
-5.88462e-06
-1.41651e-06
-7.02484e-06
-6.59974e-06
-6.2671e-07
2.87463e-06
-1.35104e-06
3.8316e-06
-2.01099e-06
4.14647e-06
-2.58512e-06
4.25807e-06
-3.06604e-06
4.18632e-06
-3.4489e-06
3.93742e-06
-3.7315e-06
3.53012e-06
-3.91525e-06
2.99274e-06
-4.00626e-06
2.35858e-06
-4.01622e-06
1.66131e-06
-3.96293e-06
9.30165e-07
-3.87026e-06
1.85148e-07
-3.7585e-06
-5.7127e-07
-3.63638e-06
-1.36836e-06
-3.49357e-06
-2.28139e-06
-3.29145e-06
-3.40192e-06
-2.94806e-06
-4.81239e-06
-2.32375e-06
-6.50892e-06
-1.30826e-06
-8.04033e-06
-7.908e-06
-4.56484e-07
3.33112e-06
-1.04236e-06
4.41747e-06
-1.57857e-06
4.68268e-06
-2.03717e-06
4.71667e-06
-2.41028e-06
4.55943e-06
-2.69431e-06
4.22145e-06
-2.88877e-06
3.72458e-06
-2.99653e-06
3.10049e-06
-3.0248e-06
2.38686e-06
-2.98673e-06
1.62324e-06
-2.90283e-06
8.46259e-07
-2.80248e-06
8.47985e-08
-2.70741e-06
-6.66333e-07
-2.63214e-06
-1.44363e-06
-2.57905e-06
-2.33448e-06
-2.52317e-06
-3.45781e-06
-2.38403e-06
-4.95152e-06
-1.98601e-06
-6.90695e-06
-1.17326e-06
-8.85307e-06
-9.08126e-06
-2.7506e-07
3.60618e-06
-7.10514e-07
4.85293e-06
-1.11808e-06
5.09025e-06
-1.46292e-06
5.06151e-06
-1.73698e-06
4.83349e-06
-1.93771e-06
4.42218e-06
-2.06571e-06
3.85258e-06
-2.12441e-06
3.1592e-06
-2.12062e-06
2.38307e-06
-2.06613e-06
1.56875e-06
-1.97885e-06
7.58979e-07
-1.8868e-06
-7.2523e-09
-1.80401e-06
-7.49123e-07
-1.74928e-06
-1.49836e-06
-1.74309e-06
-2.34067e-06
-1.78821e-06
-3.41268e-06
-1.82259e-06
-4.91714e-06
-1.6374e-06
-7.09214e-06
-1.02939e-06
-9.46108e-06
-1.01107e-05
-1.02382e-07
3.70856e-06
-3.81066e-07
5.13161e-06
-6.61735e-07
5.37092e-06
-8.97524e-07
5.2973e-06
-1.08056e-06
5.01652e-06
-1.20982e-06
4.55144e-06
-1.28767e-06
3.93042e-06
-1.31875e-06
3.19028e-06
-1.30954e-06
2.37386e-06
-1.26824e-06
1.52744e-06
-1.20705e-06
6.9779e-07
-1.13765e-06
-7.66486e-08
-1.08064e-06
-8.06129e-07
-1.03601e-06
-1.543e-06
-1.04193e-06
-2.33474e-06
-1.13678e-06
-3.31783e-06
-1.30067e-06
-4.75325e-06
-1.30234e-06
-7.09047e-06
-8.89412e-07
-9.87401e-06
-1.10001e-05
4.87727e-08
3.65979e-06
-7.36819e-08
5.25407e-06
-2.28795e-07
5.52604e-06
-3.60279e-07
5.42878e-06
-4.57085e-07
5.11332e-06
-5.19992e-07
4.61435e-06
-5.53852e-07
3.96428e-06
-5.65627e-07
3.20205e-06
-5.63443e-07
2.37168e-06
-5.54968e-07
1.51897e-06
-5.42964e-07
6.85787e-07
-5.20191e-07
-9.94214e-08
-4.92297e-07
-8.34023e-07
-4.67758e-07
-1.56754e-06
-4.85744e-07
-2.31676e-06
-5.92638e-07
-3.21094e-06
-8.39995e-07
-4.50589e-06
-9.96989e-07
-6.93348e-06
-7.60765e-07
-1.01102e-05
-1.17608e-05
1.71852e-07
3.48793e-06
2.00714e-07
5.2252e-06
1.67406e-07
5.55934e-06
1.36723e-07
5.45946e-06
1.24902e-07
5.12514e-06
1.29829e-07
4.60942e-06
1.43785e-07
3.95033e-06
1.56994e-07
3.18885e-06
1.59622e-07
2.36905e-06
1.43968e-07
1.53462e-06
1.10326e-07
7.19429e-07
7.63871e-08
-6.54823e-08
5.67827e-08
-8.14419e-07
2.58402e-08
-1.5366e-06
-1.54405e-08
-2.27548e-06
-1.60607e-07
-3.06577e-06
-4.43497e-07
-4.223e-06
-7.25483e-07
-6.65149e-06
-6.44636e-07
-1.01911e-05
-1.24055e-05
2.71088e-07
3.21685e-06
4.30143e-07
5.06615e-06
5.14483e-07
5.475e-06
5.85845e-07
5.3881e-06
6.6266e-07
5.04833e-06
7.4098e-07
4.5311e-06
8.09749e-07
3.88156e-06
8.56736e-07
3.14186e-06
8.71576e-07
2.35421e-06
8.48484e-07
1.55772e-06
7.88754e-07
7.79159e-07
7.02731e-07
2.05405e-08
6.12671e-07
-7.24358e-07
5.10738e-07
-1.43466e-06
3.80539e-07
-2.14528e-06
1.9848e-07
-2.88371e-06
-8.76082e-08
-3.93691e-06
-4.80008e-07
-6.25909e-06
-5.37697e-07
-1.01334e-05
-1.29432e-05
3.43285e-07
2.87356e-06
6.09111e-07
4.80032e-06
8.01929e-07
5.28219e-06
9.74006e-07
5.21602e-06
1.1418e-06
4.88053e-06
1.29861e-06
4.37429e-06
1.43015e-06
3.75003e-06
1.52204e-06
3.04996e-06
1.56373e-06
2.31252e-06
1.55112e-06
1.57033e-06
1.48647e-06
8.43809e-07
1.36986e-06
1.3715e-07
1.20861e-06
-5.63111e-07
1.01489e-06
-1.24094e-06
7.85663e-07
-1.91605e-06
5.21468e-07
-2.61952e-06
1.97886e-07
-3.61333e-06
-2.50981e-07
-5.81022e-06
-4.35728e-07
-9.94865e-06
-1.33789e-05
3.81207e-07
2.49235e-06
7.26057e-07
4.45547e-06
1.01762e-06
4.99062e-06
1.29126e-06
4.94238e-06
1.55496e-06
4.61683e-06
1.79686e-06
4.13239e-06
1.99913e-06
3.54775e-06
2.14556e-06
2.90354e-06
2.22498e-06
2.2331e-06
2.23251e-06
1.5628e-06
2.1674e-06
9.08912e-07
2.02806e-06
2.76494e-07
1.81555e-06
-3.50599e-07
1.54349e-06
-9.68892e-07
1.21636e-06
-1.58891e-06
8.43056e-07
-2.24622e-06
4.3885e-07
-3.20913e-06
-5.43759e-08
-5.317e-06
-3.22144e-07
-9.68088e-06
-1.3701e-05
3.70094e-07
2.12226e-06
7.61983e-07
4.06359e-06
1.14472e-06
4.60789e-06
1.52498e-06
4.56212e-06
1.89346e-06
4.24835e-06
2.2295e-06
3.79635e-06
2.51131e-06
3.26594e-06
2.72124e-06
2.69361e-06
2.8477e-06
2.10664e-06
2.88495e-06
1.52555e-06
2.83037e-06
9.63499e-07
2.68022e-06
4.26644e-07
2.42992e-06
-1.00304e-07
2.09614e-06
-6.35113e-07
1.68235e-06
-1.17512e-06
1.20293e-06
-1.76679e-06
6.96312e-07
-2.70251e-06
2.15697e-07
-4.83638e-06
-1.17588e-07
-9.34759e-06
-1.38186e-05
2.75837e-07
1.84642e-06
6.90658e-07
3.64876e-06
1.16443e-06
4.13412e-06
1.66406e-06
4.06249e-06
2.15129e-06
3.76112e-06
2.59305e-06
3.35459e-06
2.9639e-06
2.89509e-06
3.24577e-06
2.41173e-06
3.4275e-06
1.92491e-06
3.50355e-06
1.4495e-06
3.4717e-06
9.9535e-07
3.33036e-06
5.67985e-07
3.0698e-06
1.60251e-07
2.69057e-06
-2.55876e-07
2.2065e-06
-6.91056e-07
1.63321e-06
-1.1935e-06
1.0401e-06
-2.1094e-06
5.7413e-07
-4.37041e-06
1.59327e-07
-8.93279e-06
-1.36593e-05
4.4299e-08
1.80212e-06
4.77261e-07
3.2158e-06
1.06197e-06
3.54941e-06
1.70646e-06
3.418e-06
2.33092e-06
3.13667e-06
2.89091e-06
2.79459e-06
3.35991e-06
2.4261e-06
3.72137e-06
2.05027e-06
3.96601e-06
1.68027e-06
4.08991e-06
1.3256e-06
4.09247e-06
9.9279e-07
3.97471e-06
6.85739e-07
3.73119e-06
4.03777e-07
3.34784e-06
1.2747e-07
2.8328e-06
-1.76009e-07
2.21807e-06
-5.78779e-07
1.61502e-06
-1.50635e-06
1.15403e-06
-3.90943e-06
5.50222e-07
-8.32898e-06
-1.31091e-05
-4.2416e-07
2.22628e-06
7.47207e-08
2.71692e-06
8.54966e-07
2.76916e-06
1.68553e-06
2.58743e-06
2.46837e-06
2.35383e-06
3.15963e-06
2.10333e-06
3.73764e-06
1.84809e-06
4.19038e-06
1.59754e-06
4.51274e-06
1.35791e-06
4.70456e-06
1.13378e-06
4.76877e-06
9.28575e-07
4.71001e-06
7.44497e-07
4.53184e-06
5.81955e-07
4.22324e-06
4.36067e-07
3.78307e-06
2.64159e-07
3.32404e-06
-1.19752e-07
2.91355e-06
-1.09585e-06
2.38015e-06
-3.37603e-06
1.32386e-06
-7.27269e-06
-1.17852e-05
-9.37685e-07
3.16397e-06
-2.20522e-07
1.99976e-06
9.14417e-07
1.63422e-06
2.0052e-06
1.49666e-06
2.98946e-06
1.36956e-06
3.85664e-06
1.23615e-06
4.59624e-06
1.10849e-06
5.20425e-06
9.89528e-07
5.68298e-06
8.7918e-07
6.03889e-06
7.7787e-07
6.28126e-06
6.86205e-07
6.42169e-06
6.04071e-07
6.47502e-06
5.28626e-07
6.46688e-06
4.44202e-07
6.44337e-06
2.87671e-07
6.39767e-06
-7.40525e-08
6.30518e-06
-1.00335e-06
5.46499e-06
-2.53584e-06
3.2436e-06
-5.0513e-06
-8.54161e-06
3.16397e-06
5.16373e-06
6.79795e-06
8.2946e-06
9.66417e-06
1.09003e-05
1.20088e-05
1.29983e-05
1.38775e-05
1.46554e-05
1.53416e-05
1.59457e-05
1.64743e-05
1.69185e-05
1.72062e-05
1.71321e-05
1.61288e-05
1.35929e-05
8.54161e-06
)
;

boundaryField
{
    movingWall
    {
        type            calculated;
        value           uniform 0;
    }
    fixedWalls
    {
        type            calculated;
        value           uniform 0;
    }
    frontAndBack
    {
        type            empty;
        value           nonuniform List<scalar> 0();
    }
}


// ************************************************************************* //
