/*--------------------------------*- C++ -*----------------------------------*\
  =========                 |
  \\      /  F ield         | OpenFOAM: The Open Source CFD Toolbox
   \\    /   O peration     | Website:  https://openfoam.org
    \\  /    A nd           | Version:  8
     \\/     M anipulation  |
\*---------------------------------------------------------------------------*/
FoamFile
{
    version     2.0;
    format      ascii;
    class       volVectorField;
    location    "7";
    object      U;
}
// * * * * * * * * * * * * * * * * * * * * * * * * * * * * * * * * * * * * * //

dimensions      [0 1 -1 0 0 0 0];

internalField   nonuniform List<vector> 
400
(
(0.00305703 -0.00400201 0)
(0.00618257 -0.0036895 0)
(0.00398412 -0.00102997 0)
(-0.00521532 0.003302 0)
(-0.0182415 0.00614159 0)
(-0.0338821 0.00788 0)
(-0.0504694 0.00873471 0)
(-0.0669115 0.00889617 0)
(-0.082309 0.00852672 0)
(-0.0959198 0.00774264 0)
(-0.107112 0.00661217 0)
(-0.115282 0.00514138 0)
(-0.11979 0.00325653 0)
(-0.11999 0.000793709 0)
(-0.114892 -0.00252139 0)
(-0.10345 -0.00645664 0)
(-0.0852449 -0.0106848 0)
(-0.0608906 -0.0143661 0)
(-0.0330086 -0.0151042 0)
(-0.00762891 -0.00714657 0)
(-0.000693778 -0.00574541 0)
(-0.0100976 0.00373218 0)
(-0.0233938 0.0132722 0)
(-0.0393493 0.0196674 0)
(-0.0567433 0.0234716 0)
(-0.0745829 0.0252627 0)
(-0.0919095 0.0253404 0)
(-0.107888 0.0239674 0)
(-0.12178 0.0213745 0)
(-0.132965 0.0177555 0)
(-0.14092 0.0132515 0)
(-0.145165 0.00791479 0)
(-0.145167 0.00165378 0)
(-0.140417 -0.0057812 0)
(-0.131037 -0.014169 0)
(-0.11663 -0.0234428 0)
(-0.0967204 -0.0331942 0)
(-0.0714592 -0.0418387 0)
(-0.0426195 -0.0447319 0)
(-0.0138106 -0.0305145 0)
(-0.0061889 0.00655963 0)
(-0.0217859 0.0197123 0)
(-0.0382878 0.0295215 0)
(-0.0552885 0.0363478 0)
(-0.0720783 0.0402651 0)
(-0.0880516 0.0414937 0)
(-0.102607 0.0403021 0)
(-0.115202 0.0370027 0)
(-0.125376 0.0319132 0)
(-0.132788 0.0253234 0)
(-0.137217 0.0174593 0)
(-0.138541 0.00843998 0)
(-0.136619 -0.00175904 0)
(-0.131451 -0.0131341 0)
(-0.122979 -0.0256433 0)
(-0.110627 -0.0395248 0)
(-0.0936173 -0.0544611 0)
(-0.0714142 -0.0684544 0)
(-0.0449009 -0.0753485 0)
(-0.016051 -0.0595251 0)
(-0.00777944 0.0219471 0)
(-0.0252601 0.0368501 0)
(-0.0423493 0.0462846 0)
(-0.0585964 0.0525073 0)
(-0.073609 0.0554907 0)
(-0.087079 0.0553282 0)
(-0.0986704 0.0522876 0)
(-0.108098 0.0467504 0)
(-0.115165 0.0391406 0)
(-0.119792 0.0298634 0)
(-0.122024 0.0192461 0)
(-0.121971 0.00748632 0)
(-0.119621 -0.00535054 0)
(-0.115364 -0.0192344 0)
(-0.10885 -0.0347076 0)
(-0.09946 -0.0523028 0)
(-0.086165 -0.0719278 0)
(-0.0677384 -0.0915556 0)
(-0.0444004 -0.10395 0)
(-0.0161237 -0.0895078 0)
(-0.00713469 0.0375258 0)
(-0.0239582 0.0539645 0)
(-0.0399509 0.0622928 0)
(-0.0545337 0.0671374 0)
(-0.0673989 0.0685224 0)
(-0.0783845 0.0665126 0)
(-0.0873231 0.0614102 0)
(-0.0941069 0.0536722 0)
(-0.0987169 0.0438226 0)
(-0.10125 0.0323699 0)
(-0.101929 0.019729 0)
(-0.101029 0.00616266 0)
(-0.0986848 -0.00825827 0)
(-0.095517 -0.0237306 0)
(-0.0910968 -0.0411544 0)
(-0.0848772 -0.0615262 0)
(-0.0756275 -0.0852468 0)
(-0.0613766 -0.110669 0)
(-0.0420959 -0.12971 0)
(-0.0149945 -0.118701 0)
(-0.00542389 0.0514731 0)
(-0.0201903 0.0696307 0)
(-0.0341238 0.0766129 0)
(-0.0465447 0.0797457 0)
(-0.0571425 0.0792669 0)
(-0.0658123 0.0752712 0)
(-0.0724702 0.0681093 0)
(-0.077099 0.0583137 0)
(-0.0797678 0.0465042 0)
(-0.0806623 0.0332953 0)
(-0.080106 0.0192064 0)
(-0.0785115 0.00458166 0)
(-0.0762443 -0.010528 0)
(-0.07406 -0.0265898 0)
(-0.0715298 -0.0449249 0)
(-0.0682943 -0.0670661 0)
(-0.0631274 -0.0941446 0)
(-0.0531488 -0.125349 0)
(-0.0386949 -0.151923 0)
(-0.013192 -0.146021 0)
(-0.00331272 0.0625087 0)
(-0.0152977 0.0828807 0)
(-0.02669 0.0886614 0)
(-0.0367322 0.0901097 0)
(-0.0450893 0.0878026 0)
(-0.0516776 0.0819046 0)
(-0.0564489 0.0728252 0)
(-0.0594207 0.0611702 0)
(-0.0606874 0.0476564 0)
(-0.0604518 0.0330213 0)
(-0.0590604 0.0179226 0)
(-0.0570046 0.00280421 0)
(-0.0548784 -0.0123253 0)
(-0.0533431 -0.0281916 0)
(-0.0521416 -0.0464675 0)
(-0.0512421 -0.0692673 0)
(-0.0498742 -0.0987075 0)
(-0.0438779 -0.135419 0)
(-0.0347982 -0.170143 0)
(-0.0110392 -0.170801 0)
(-0.0011666 0.0700001 0)
(-0.0100256 0.0932276 0)
(-0.0186953 0.0981774 0)
(-0.0263273 0.0981818 0)
(-0.032554 0.0942776 0)
(-0.0373117 0.0867254 0)
(-0.0405767 0.0759962 0)
(-0.0423856 0.0627591 0)
(-0.0428338 0.0478123 0)
(-0.0421026 0.0320083 0)
(-0.0404912 0.0161454 0)
(-0.0384428 0.000780521 0)
(-0.036649 -0.0139906 0)
(-0.0353755 -0.0292376 0)
(-0.0347915 -0.0466818 0)
(-0.0351578 -0.0689566 0)
(-0.0370112 -0.0994147 0)
(-0.0343221 -0.14103 0)
(-0.0308839 -0.184227 0)
(-0.00873263 -0.192737 0)
(0.000746489 0.0738084 0)
(-0.00483502 0.10052 0)
(-0.0107345 0.105119 0)
(-0.0160245 0.10402 0)
(-0.0202476 0.0988589 0)
(-0.0233751 0.0900136 0)
(-0.0254171 0.0780178 0)
(-0.0264417 0.0635898 0)
(-0.0265544 0.0475814 0)
(-0.0259119 0.0309228 0)
(-0.0247143 0.0145207 0)
(-0.0230749 -0.000972671 0)
(-0.0220492 -0.0155082 0)
(-0.0209506 -0.0302817 0)
(-0.0206163 -0.0465612 0)
(-0.0210844 -0.0672808 0)
(-0.0254202 -0.0970976 0)
(-0.0250799 -0.142634 0)
(-0.0272987 -0.194292 0)
(-0.0063947 -0.211818 0)
(0.0021926 0.0742708 0)
(-5.54537e-05 0.104631 0)
(-0.00317552 0.109573 0)
(-0.00621999 0.107742 0)
(-0.00853342 0.101694 0)
(-0.0101301 0.0919677 0)
(-0.0110624 0.0791598 0)
(-0.0114502 0.0640208 0)
(-0.0114349 0.0474148 0)
(-0.0111759 0.0302685 0)
(-0.0108418 0.0135142 0)
(-0.010423 -0.0020665 0)
(-0.0100065 -0.0166487 0)
(-0.0093134 -0.0312548 0)
(-0.00952808 -0.046546 0)
(-0.00944279 -0.0651993 0)
(-0.0155717 -0.0927863 0)
(-0.0165125 -0.140879 0)
(-0.0242283 -0.20065 0)
(-0.0040819 -0.228224 0)
(0.00320899 0.0721001 0)
(0.00402474 0.105529 0)
(0.00365444 0.111501 0)
(0.00282004 0.109443 0)
(0.00237802 0.102881 0)
(0.0023258 0.0926573 0)
(0.00256053 0.0794646 0)
(0.0028979 0.0641017 0)
(0.00314777 0.0474539 0)
(0.00314013 0.0304238 0)
(0.00278489 0.0137753 0)
(0.00186876 -0.00206097 0)
(0.00138511 -0.0169238 0)
(0.00115365 -0.0314129 0)
(-0.000271649 -0.0461859 0)
(-6.35588e-05 -0.0628429 0)
(-0.00751857 -0.0874203 0)
(-0.00870885 -0.136415 0)
(-0.0216818 -0.203685 0)
(-0.00177844 -0.242214 0)
(0.00390595 0.0676169 0)
(0.0073735 0.103592 0)
(0.00950873 0.110966 0)
(0.0108525 0.109022 0)
(0.0122985 0.10222 0)
(0.0138666 0.0918261 0)
(0.0153926 0.0786629 0)
(0.0166294 0.0635641 0)
(0.0173458 0.0474018 0)
(0.0173713 0.0310141 0)
(0.0167059 0.0150026 0)
(0.0151217 -0.000628863 0)
(0.0134012 -0.0156677 0)
(0.0115715 -0.0300835 0)
(0.00874093 -0.0445739 0)
(0.00762472 -0.0596587 0)
(-0.00103259 -0.0813624 0)
(-0.00151493 -0.129656 0)
(-0.0195088 -0.203763 0)
(0.000596243 -0.254042 0)
(0.00428976 0.0613489 0)
(0.00991791 0.0992352 0)
(0.0142303 0.108153 0)
(0.0176776 0.106585 0)
(0.0210389 0.099787 0)
(0.0243125 0.0895019 0)
(0.0272612 0.0767053 0)
(0.0295788 0.0622445 0)
(0.0310035 0.0469332 0)
(0.0313689 0.0314923 0)
(0.0306635 0.0163811 0)
(0.029078 0.0015664 0)
(0.0260991 -0.0129557 0)
(0.022609 -0.0269811 0)
(0.0180988 -0.040948 0)
(0.0146656 -0.0554194 0)
(0.00430652 -0.0756571 0)
(0.00519708 -0.120684 0)
(-0.017479 -0.201336 0)
(0.00319813 -0.263875 0)
(0.0042758 0.0539222 0)
(0.0114647 0.0929655 0)
(0.0175735 0.103249 0)
(0.0230467 0.102138 0)
(0.0283923 0.095515 0)
(0.033491 0.0855715 0)
(0.0380093 0.0734316 0)
(0.0415837 0.0599312 0)
(0.0439267 0.0457935 0)
(0.0448652 0.0316081 0)
(0.044353 0.0177321 0)
(0.0425696 0.0042136 0)
(0.0388552 -0.00914745 0)
(0.0340473 -0.0222204 0)
(0.0279384 -0.0352824 0)
(0.0220323 -0.0489783 0)
(0.00929238 -0.0685519 0)
(0.0113175 -0.110876 0)
(-0.0152709 -0.197002 0)
(0.00639665 -0.271614 0)
(0.00364924 0.0461352 0)
(0.0116531 0.0853629 0)
(0.0191744 0.0964412 0)
(0.0266589 0.0956287 0)
(0.0341431 0.0892597 0)
(0.0412535 0.0798654 0)
(0.0475228 0.0686602 0)
(0.0525341 0.0564308 0)
(0.0559834 0.0437903 0)
(0.0576917 0.0312076 0)
(0.0575847 0.0189758 0)
(0.0557856 0.00719651 0)
(0.0516229 -0.00451543 0)
(0.0458239 -0.0160936 0)
(0.0383428 -0.0277654 0)
(0.0300674 -0.0403299 0)
(0.0153286 -0.0593531 0)
(0.0167706 -0.10148 0)
(-0.0121818 -0.190818 0)
(0.0109742 -0.276801 0)
(0.00185488 0.0392064 0)
(0.00980861 0.0770617 0)
(0.0185625 0.0878543 0)
(0.0282201 0.0869088 0)
(0.0381245 0.0808039 0)
(0.0475105 0.0721793 0)
(0.0557456 0.0622098 0)
(0.0623745 0.0515761 0)
(0.0670985 0.0407637 0)
(0.0697493 0.0301284 0)
(0.0702523 0.0199027 0)
(0.0686495 0.0102068 0)
(0.0647638 0.000799649 0)
(0.0582442 -0.00880935 0)
(0.0496686 -0.0186722 0)
(0.039259 -0.0297691 0)
(0.0232957 -0.0483407 0)
(0.0230421 -0.0926266 0)
(-0.00667691 -0.184601 0)
(0.0178333 -0.278729 0)
(-0.00221875 0.0347127 0)
(0.00459123 0.0689816 0)
(0.0153026 0.0775043 0)
(0.0275992 0.0756815 0)
(0.0403535 0.0698333 0)
(0.0523292 0.062247 0)
(0.0627478 0.0538512 0)
(0.0711603 0.0451489 0)
(0.0773092 0.0364814 0)
(0.0810645 0.0280935 0)
(0.0823829 0.0201493 0)
(0.0812834 0.0127437 0)
(0.0778603 0.00581528 0)
(0.0715724 -0.00124488 0)
(0.0624694 -0.00899938 0)
(0.0506542 -0.0181525 0)
(0.0350059 -0.0363935 0)
(0.0335994 -0.0844583 0)
(0.00368885 -0.177108 0)
(0.0282876 -0.274872 0)
(-0.00862049 0.0397419 0)
(-0.00595775 0.0600415 0)
(0.00941865 0.0649021 0)
(0.025335 0.0616784 0)
(0.041534 0.0563342 0)
(0.0564387 0.0502169 0)
(0.0692744 0.043834 0)
(0.0796888 0.0374613 0)
(0.0875192 0.0312851 0)
(0.0927174 0.0254445 0)
(0.095314 0.0200407 0)
(0.0953882 0.0151395 0)
(0.0930379 0.01076 0)
(0.0883176 0.00679807 0)
(0.0807036 0.00279772 0)
(0.0693435 -0.00324246 0)
(0.0585702 -0.0243135 0)
(0.0575449 -0.076018 0)
(0.0261862 -0.161716 0)
(0.0462961 -0.254668 0)
(-0.015004 0.056003 0)
(-0.0169036 0.04521 0)
(0.00751251 0.0415835 0)
(0.0293033 0.0393074 0)
(0.0499649 0.0362089 0)
(0.0686529 0.0326328 0)
(0.084861 0.0290016 0)
(0.0984286 0.0254964 0)
(0.109351 0.0221901 0)
(0.117723 0.0191335 0)
(0.123706 0.0163657 0)
(0.127514 0.0139036 0)
(0.12941 0.0117062 0)
(0.129755 0.00949132 0)
(0.128779 0.00585683 0)
(0.12433 -0.00403298 0)
(0.12524 -0.0262007 0)
(0.122425 -0.0651909 0)
(0.0834998 -0.126154 0)
(0.0834945 -0.200109 0)
(0.0658083 0.0564354 0)
(0.0807084 0.0405637 0)
(0.11781 0.0305135 0)
(0.151162 0.0253062 0)
(0.180131 0.0219973 0)
(0.2061 0.0194724 0)
(0.229526 0.0174188 0)
(0.250523 0.0157013 0)
(0.269214 0.0142336 0)
(0.285771 0.0129618 0)
(0.300386 0.0118516 0)
(0.313252 0.0108754 0)
(0.324512 0.00999216 0)
(0.334083 0.00906238 0)
(0.341383 0.00747709 0)
(0.345116 0.00348506 0)
(0.336162 -0.00443078 0)
(0.304987 -0.0193198 0)
(0.231242 -0.0491641 0)
(0.167743 -0.105233 0)
)
;

boundaryField
{
    movingWall
    {
        type            fixedValue;
        value           uniform (1 0 0);
    }
    fixedWalls
    {
        type            noSlip;
    }
    frontAndBack
    {
        type            empty;
    }
}


// ************************************************************************* //
