/*--------------------------------*- C++ -*----------------------------------*\
  =========                 |
  \\      /  F ield         | OpenFOAM: The Open Source CFD Toolbox
   \\    /   O peration     | Website:  https://openfoam.org
    \\  /    A nd           | Version:  8
     \\/     M anipulation  |
\*---------------------------------------------------------------------------*/
FoamFile
{
    version     2.0;
    format      ascii;
    class       volScalarField;
    location    "4.5";
    object      p;
}
// * * * * * * * * * * * * * * * * * * * * * * * * * * * * * * * * * * * * * //

dimensions      [0 2 -2 0 0 0 0];

internalField   nonuniform List<scalar> 
400
(
3.30773e-08
-0.000167445
-0.000365432
-0.00059323
-0.000936514
-0.00140524
-0.00199331
-0.00264432
-0.00326279
-0.00373058
-0.00392062
-0.00370483
-0.00296473
-0.0016219
0.000323657
0.00276082
0.0053557
0.0074938
0.00852523
0.00836036
0.000156997
1.73826e-05
-0.000234318
-0.000535675
-0.000937203
-0.00147732
-0.00214644
-0.00288277
-0.00358591
-0.00413538
-0.00440767
-0.00428497
-0.00366267
-0.00248777
-0.000698666
0.00159529
0.00409652
0.00627211
0.0074882
0.00757883
0.000460704
0.000207341
-0.000141534
-0.000594462
-0.00118821
-0.00193184
-0.00279326
-0.00369673
-0.00453603
-0.00519368
-0.00555959
-0.00554006
-0.00504935
-0.00399607
-0.00237607
-0.000263957
0.00213208
0.00438057
0.00583846
0.00618133
0.000549126
0.000219957
-0.000283737
-0.000946906
-0.00177731
-0.00275166
-0.003812
-0.0048701
-0.00582039
-0.0065579
-0.00699434
-0.00705865
-0.00667856
-0.00579554
-0.00440329
-0.00253032
-0.000294588
0.00198075
0.00363898
0.00422158
0.000256781
-0.000127353
-0.000761567
-0.00160665
-0.00263526
-0.00379354
-0.00500309
-0.00616744
-0.00718525
-0.00796638
-0.00844369
-0.00856772
-0.00828877
-0.00758176
-0.00644387
-0.00486068
-0.00286505
-0.000660449
0.00109267
0.00188189
-0.00041661
-0.000822871
-0.00153285
-0.00249064
-0.00364282
-0.00491146
-0.00620223
-0.0074131
-0.00844779
-0.00922953
-0.00970887
-0.00985724
-0.00965541
-0.00911224
-0.00822961
-0.00696413
-0.00528227
-0.00325473
-0.00153285
-0.000590084
-0.00133054
-0.00173027
-0.00246472
-0.00346794
-0.00467027
-0.00597773
-0.0072851
-0.00848709
-0.00949205
-0.0102343
-0.0106796
-0.0108211
-0.0106697
-0.0102605
-0.00960404
-0.00864688
-0.00731985
-0.00555506
-0.00398404
-0.00294528
-0.00230565
-0.00268287
-0.00340708
-0.00440602
-0.00560239
-0.00689408
-0.00817056
-0.0093255
-0.0102713
-0.0109511
-0.0113441
-0.0114618
-0.0113386
-0.0110244
-0.0105402
-0.00983959
-0.00885902
-0.00739972
-0.00606546
-0.0049856
-0.00320224
-0.00354205
-0.00423674
-0.00519954
-0.00635383
-0.0075963
-0.0088164
-0.00990912
-0.0107902
-0.0114088
-0.0117532
-0.0118429
-0.0117359
-0.0114773
-0.0111005
-0.0105758
-0.00988843
-0.00872543
-0.00766489
-0.00658288
-0.00393537
-0.00421912
-0.00487169
-0.00577885
-0.00687063
-0.00804778
-0.00920449
-0.0102392
-0.0110698
-0.0116476
-0.0119644
-0.0120428
-0.0119398
-0.011698
-0.0113701
-0.0109296
-0.0104702
-0.0095467
-0.00874845
-0.0076727
-0.00445342
-0.00468681
-0.00527569
-0.00611186
-0.00712819
-0.00823448
-0.00933184
-0.0103219
-0.0111232
-0.0116842
-0.011993
-0.0120741
-0.0119684
-0.0117185
-0.011403
-0.0109571
-0.0106799
-0.0099103
-0.00932758
-0.00823162
-0.00475222
-0.00494264
-0.00545587
-0.00620739
-0.00713853
-0.00817121
-0.00921352
-0.0101694
-0.0109556
-0.0115163
-0.0118315
-0.0119154
-0.0118027
-0.0115437
-0.011197
-0.0107443
-0.0105292
-0.00984228
-0.00944007
-0.00825335
-0.00486856
-0.00501307
-0.0054348
-0.00608596
-0.00692345
-0.00788106
-0.0088721
-0.00980082
-0.0105805
-0.0111489
-0.0114764
-0.0115626
-0.011447
-0.0111746
-0.0107916
-0.0103106
-0.01006
-0.0093515
-0.00917631
-0.00771458
-0.00485409
-0.00494178
-0.00524301
-0.00576862
-0.00650088
-0.00738344
-0.00833038
-0.0092424
-0.0100266
-0.0106126
-0.0109605
-0.0110584
-0.0109419
-0.0106519
-0.010227
-0.00970194
-0.00937106
-0.00844476
-0.00864872
-0.00651016
-0.00476318
-0.00477257
-0.00490956
-0.00527659
-0.00589141
-0.0067035
-0.00762008
-0.00853235
-0.00933781
-0.00995626
-0.0103374
-0.0104592
-0.0103504
-0.010041
-0.00956945
-0.00898574
-0.00852283
-0.0073469
-0.00771758
-0.00444476
-0.00465174
-0.00452782
-0.00444996
-0.00462815
-0.00512144
-0.00587743
-0.00678592
-0.00772173
-0.00856958
-0.00923868
-0.00966959
-0.00983321
-0.00973425
-0.00941308
-0.00890562
-0.00825952
-0.00760395
-0.00616818
-0.00611083
-0.00125901
-0.0045862
-0.00418044
-0.00385845
-0.00383627
-0.00422443
-0.00495449
-0.00588676
-0.00687464
-0.00778877
-0.00852826
-0.00902569
-0.0092459
-0.00918243
-0.00886747
-0.00834134
-0.0076268
-0.00669094
-0.0047354
-0.00314777
0.0047226
-0.0045682
-0.00376076
-0.00313472
-0.00292362
-0.00324863
-0.00399626
-0.00498783
-0.0060549
-0.0070557
-0.00788157
-0.00845953
-0.00875
-0.00874075
-0.0084381
-0.007857
-0.0070263
-0.00569819
-0.00238171
0.00312189
0.0180387
-0.00509258
-0.00333144
-0.00237264
-0.00203791
-0.0023651
-0.0031774
-0.00425979
-0.0054252
-0.00652217
-0.0074382
-0.00809912
-0.00846502
-0.00852528
-0.00829674
-0.00783342
-0.00712797
-0.00454761
0.00228048
0.0153333
0.0417843
-0.00821491
-0.00211768
-0.000516073
-0.000547742
-0.00114371
-0.00212944
-0.00337111
-0.00468547
-0.00591285
-0.00694041
-0.00769596
-0.00813941
-0.00825055
-0.00798412
-0.00707319
-0.00456346
0.000813366
0.0121268
0.0321939
0.0656148
)
;

boundaryField
{
    movingWall
    {
        type            zeroGradient;
    }
    fixedWalls
    {
        type            zeroGradient;
    }
    frontAndBack
    {
        type            empty;
    }
}


// ************************************************************************* //
