/*--------------------------------*- C++ -*----------------------------------*\
  =========                 |
  \\      /  F ield         | OpenFOAM: The Open Source CFD Toolbox
   \\    /   O peration     | Website:  https://openfoam.org
    \\  /    A nd           | Version:  8
     \\/     M anipulation  |
\*---------------------------------------------------------------------------*/
FoamFile
{
    version     2.0;
    format      ascii;
    class       surfaceScalarField;
    location    "4.5";
    object      phi;
}
// * * * * * * * * * * * * * * * * * * * * * * * * * * * * * * * * * * * * * //

dimensions      [0 3 -1 0 0 0 0];

internalField   nonuniform List<scalar> 
760
(
2.34711e-07
-2.34715e-07
2.47719e-07
-1.30077e-08
-1.42132e-08
2.61932e-07
-5.33874e-07
5.19661e-07
-1.21747e-06
6.83598e-07
-1.99353e-06
7.7606e-07
-2.80063e-06
8.07102e-07
-3.58696e-06
7.86322e-07
-4.30935e-06
7.22393e-07
-4.93159e-06
6.22239e-07
-5.42231e-06
4.90721e-07
-5.75176e-06
3.2945e-07
-5.88783e-06
1.36066e-07
-5.78899e-06
-9.88394e-08
-5.41078e-06
-3.78206e-07
-4.7127e-06
-6.98086e-07
-3.67521e-06
-1.03749e-06
-2.33619e-06
-1.33901e-06
-9.03855e-07
-1.43234e-06
-9.03855e-07
-2.3706e-07
2.34517e-09
-7.68898e-07
5.1883e-07
-1.49849e-06
9.91522e-07
-2.30668e-06
1.32785e-06
-3.1627e-06
1.53963e-06
-4.02336e-06
1.63672e-06
-4.84511e-06
1.62885e-06
-5.58813e-06
1.52934e-06
-6.21734e-06
1.35161e-06
-6.70262e-06
1.10751e-06
-7.0181e-06
8.06201e-07
-7.14068e-06
4.52037e-07
-7.03696e-06
3.23412e-08
-6.71117e-06
-4.24622e-07
-6.14403e-06
-9.45353e-07
-5.319e-06
-1.52311e-06
-4.21525e-06
-2.14124e-06
-2.84304e-06
-2.71122e-06
-1.31204e-06
-2.96334e-06
-2.2159e-06
-6.36557e-07
6.38902e-07
-1.43789e-06
1.32016e-06
-2.25688e-06
1.81052e-06
-3.08068e-06
2.15164e-06
-3.88359e-06
2.34254e-06
-4.63602e-06
2.38914e-06
-5.30997e-06
2.30281e-06
-5.88013e-06
2.0995e-06
-6.32559e-06
1.79706e-06
-6.63075e-06
1.41268e-06
-6.78487e-06
9.6032e-07
-6.77985e-06
4.47018e-07
-6.61907e-06
-1.28441e-07
-6.29374e-06
-7.49954e-07
-5.79436e-06
-1.44474e-06
-5.08788e-06
-2.22959e-06
-4.13508e-06
-3.09404e-06
-2.90967e-06
-3.93663e-06
-1.45117e-06
-4.42184e-06
-3.66706e-06
-7.69295e-07
1.4082e-06
-1.62763e-06
2.17849e-06
-2.44412e-06
2.62701e-06
-3.20846e-06
2.91598e-06
-3.90874e-06
3.04282e-06
-4.52858e-06
3.00898e-06
-5.05225e-06
2.82648e-06
-5.46722e-06
2.51447e-06
-5.76562e-06
2.09546e-06
-5.94471e-06
1.59177e-06
-6.00619e-06
1.0218e-06
-5.9552e-06
3.96032e-07
-5.80315e-06
-2.80499e-07
-5.54512e-06
-1.00798e-06
-5.16371e-06
-1.82615e-06
-4.62062e-06
-2.77267e-06
-3.8589e-06
-3.85576e-06
-2.8133e-06
-4.98224e-06
-1.4668e-06
-5.76834e-06
-5.13387e-06
-7.31495e-07
2.13969e-06
-1.54182e-06
2.98882e-06
-2.29059e-06
3.37578e-06
-2.96269e-06
3.58809e-06
-3.54978e-06
3.62992e-06
-4.04308e-06
3.50227e-06
-4.43536e-06
3.21875e-06
-4.72286e-06
2.80197e-06
-4.90654e-06
2.27915e-06
-4.9925e-06
1.67772e-06
-4.9916e-06
1.0209e-06
-4.91887e-06
3.23294e-07
-4.79045e-06
-4.0892e-07
-4.60762e-06
-1.1908e-06
-4.35487e-06
-2.0789e-06
-3.98984e-06
-3.1377e-06
-3.43926e-06
-4.40634e-06
-2.59972e-06
-5.82178e-06
-1.40659e-06
-6.96147e-06
-6.54046e-06
-6.0563e-07
2.74532e-06
-1.3104e-06
3.69358e-06
-1.95518e-06
4.02056e-06
-2.51844e-06
4.15134e-06
-2.99227e-06
4.10375e-06
-3.37123e-06
3.88123e-06
-3.65242e-06
3.49994e-06
-3.83651e-06
2.98606e-06
-3.92892e-06
2.37156e-06
-3.94084e-06
1.68964e-06
-3.88997e-06
9.70033e-07
-3.80048e-06
2.33804e-07
-3.69406e-06
-5.15337e-07
-3.57998e-06
-1.30488e-06
-3.44775e-06
-2.21114e-06
-3.2569e-06
-3.32854e-06
-2.9235e-06
-4.73973e-06
-2.30741e-06
-6.43787e-06
-1.29983e-06
-7.96905e-06
-7.84029e-06
-4.41148e-07
3.18647e-06
-1.0112e-06
4.26364e-06
-1.53471e-06
4.54407e-06
-1.98373e-06
4.60037e-06
-2.35005e-06
4.47007e-06
-2.6296e-06
4.16078e-06
-2.82129e-06
3.69163e-06
-2.92735e-06
3.09212e-06
-2.95437e-06
2.39859e-06
-2.91509e-06
1.65036e-06
-2.83026e-06
8.85202e-07
-2.73037e-06
1.33917e-07
-2.63933e-06
-6.06379e-07
-2.57249e-06
-1.37173e-06
-2.53178e-06
-2.25185e-06
-2.48955e-06
-3.37077e-06
-2.36205e-06
-4.86723e-06
-1.97217e-06
-6.82775e-06
-1.16618e-06
-8.77505e-06
-9.00646e-06
-2.65433e-07
3.4519e-06
-6.88779e-07
4.68699e-06
-1.08609e-06
4.94138e-06
-1.42264e-06
4.93691e-06
-1.69016e-06
4.73758e-06
-1.88577e-06
4.3564e-06
-2.00968e-06
3.81554e-06
-2.0649e-06
3.14734e-06
-2.05785e-06
2.39154e-06
-2.00009e-06
1.5926e-06
-1.90998e-06
7.95095e-07
-1.81524e-06
3.91782e-08
-1.73473e-06
-6.86892e-07
-1.68725e-06
-1.41921e-06
-1.69375e-06
-2.24535e-06
-1.75441e-06
-3.31011e-06
-1.80261e-06
-4.81903e-06
-1.62591e-06
-7.00446e-06
-1.02362e-06
-9.37733e-06
-1.00301e-05
-9.85879e-08
3.55049e-06
-3.69061e-07
4.95746e-06
-6.4207e-07
5.21439e-06
-8.71087e-07
5.16593e-06
-1.04808e-06
4.91458e-06
-1.1719e-06
4.48021e-06
-1.24473e-06
3.88838e-06
-1.27119e-06
3.1738e-06
-1.25804e-06
2.37839e-06
-1.21429e-06
1.54884e-06
-1.152e-06
7.32808e-07
-1.08046e-06
-3.23619e-08
-1.02009e-06
-7.47266e-07
-9.78777e-07
-1.46052e-06
-9.94302e-07
-2.22982e-06
-1.10375e-06
-3.20066e-06
-1.28301e-06
-4.63977e-06
-1.29343e-06
-6.99403e-06
-8.85092e-07
-9.78568e-06
-1.09152e-05
4.71408e-08
3.50335e-06
-7.17871e-08
5.07639e-06
-2.22356e-07
5.36496e-06
-3.49043e-07
5.29262e-06
-4.40838e-07
5.00637e-06
-4.98497e-07
4.53787e-06
-5.26876e-07
3.91676e-06
-5.33079e-07
3.18001e-06
-5.25623e-07
2.37093e-06
-5.12729e-07
1.53595e-06
-4.98041e-07
7.18121e-07
-4.74092e-07
-5.63113e-08
-4.47177e-07
-7.74182e-07
-4.244e-07
-1.48329e-06
-4.47243e-07
-2.20698e-06
-5.63578e-07
-3.08433e-06
-8.25942e-07
-4.3774e-06
-9.91328e-07
-6.82865e-06
-7.58208e-07
-1.00188e-05
-1.16734e-05
1.6473e-07
3.33862e-06
1.91823e-07
5.04929e-06
1.59511e-07
5.39727e-06
1.31134e-07
5.32099e-06
1.22689e-07
5.01482e-06
1.31989e-07
4.52857e-06
1.51166e-07
3.89758e-06
1.70117e-07
3.16106e-06
1.78426e-07
2.36262e-06
1.67386e-07
1.54699e-06
1.35685e-07
7.49822e-07
1.0076e-07
-2.13862e-08
8.04013e-08
-7.53823e-07
5.01889e-08
-1.45308e-06
9.2396e-09
-2.16603e-06
-1.41136e-07
-2.93395e-06
-4.34754e-07
-4.08378e-06
-7.23962e-07
-6.53944e-06
-6.4432e-07
-1.00984e-05
-1.23177e-05
2.58709e-07
3.07991e-06
4.10519e-07
4.89748e-06
4.91631e-07
5.31616e-06
5.62126e-07
5.2505e-06
6.39918e-07
4.93703e-06
7.20857e-07
4.44763e-06
7.93624e-07
3.82481e-06
8.45537e-07
3.10914e-06
8.65676e-07
2.34248e-06
8.48199e-07
1.56447e-06
7.95685e-07
8.02337e-07
7.11563e-07
6.27352e-08
6.1722e-07
-6.5948e-07
5.13622e-07
-1.34948e-06
3.85504e-07
-2.03791e-06
2.06268e-07
-2.75472e-06
-8.57665e-08
-3.79175e-06
-4.83895e-07
-6.14131e-06
-5.40075e-07
-1.00423e-05
-1.28578e-05
3.25873e-07
2.75404e-06
5.79005e-07
4.64435e-06
7.64051e-07
5.13111e-06
9.31618e-07
5.08293e-06
1.09743e-06
4.77121e-06
1.25444e-06
4.29062e-06
1.38797e-06
3.69128e-06
1.4831e-06
3.01402e-06
1.52856e-06
2.29702e-06
1.51944e-06
1.57359e-06
1.45678e-06
8.64994e-07
1.3425e-06
1.77022e-07
1.18464e-06
-5.01626e-07
9.94617e-07
-1.15946e-06
7.70754e-07
-1.81405e-06
5.12347e-07
-2.49631e-06
1.90607e-07
-3.47001e-06
-2.61006e-07
-5.6897e-06
-4.40685e-07
-9.86258e-06
-1.32985e-05
3.59166e-07
2.39487e-06
6.86108e-07
4.31741e-06
9.65299e-07
4.85192e-06
1.23044e-06
4.81779e-06
1.48873e-06
4.51293e-06
1.72787e-06
4.05147e-06
1.92962e-06
3.48954e-06
2.07716e-06
2.86648e-06
2.15872e-06
2.21545e-06
2.16897e-06
1.56334e-06
2.10687e-06
9.27099e-07
1.97105e-06
3.12836e-07
1.76394e-06
-2.94508e-07
1.49897e-06
-8.9449e-07
1.18055e-06
-1.49563e-06
8.16696e-07
-2.13246e-06
4.21733e-07
-3.07505e-06
-6.62363e-08
-5.20173e-06
-3.29696e-07
-9.59912e-06
-1.36282e-05
3.44075e-07
2.0508e-06
7.1372e-07
3.94777e-06
1.07953e-06
4.48611e-06
1.44705e-06
4.45026e-06
1.80629e-06
4.15369e-06
2.13623e-06
3.72154e-06
2.41466e-06
3.2111e-06
2.62342e-06
2.65772e-06
2.75046e-06
2.08841e-06
2.78982e-06
1.52398e-06
2.73884e-06
9.78081e-07
2.59422e-06
4.57456e-07
2.35089e-06
-5.11823e-08
2.02733e-06
-5.70936e-07
1.62551e-06
-1.0938e-06
1.1592e-06
-1.66615e-06
6.6717e-07
-2.58301e-06
1.92044e-07
-4.72661e-06
-1.32788e-07
-9.27429e-06
-1.37609e-05
2.4663e-07
1.80417e-06
6.36552e-07
3.55784e-06
1.08912e-06
4.03355e-06
1.57158e-06
3.9678e-06
2.04539e-06
3.67989e-06
2.47737e-06
3.28956e-06
2.84174e-06
2.84673e-06
3.12001e-06
2.37945e-06
3.30067e-06
1.90775e-06
3.37809e-06
1.44656e-06
3.35037e-06
1.0058e-06
3.21684e-06
5.90988e-07
2.96788e-06
1.97783e-07
2.59995e-06
-2.03012e-07
2.13007e-06
-6.23923e-07
1.573e-06
-1.10908e-06
9.97701e-07
-2.00771e-06
5.48307e-07
-4.27721e-06
1.48329e-07
-8.87431e-06
-1.36126e-05
1.80562e-08
1.78611e-06
4.2064e-07
3.15526e-06
9.80779e-07
3.47341e-06
1.60336e-06
3.34521e-06
2.20983e-06
3.07342e-06
2.75611e-06
2.74328e-06
3.21537e-06
2.38747e-06
3.57069e-06
2.02413e-06
3.81248e-06
1.66597e-06
3.93664e-06
1.32239e-06
3.94254e-06
9.99906e-07
3.83117e-06
7.02355e-07
3.59962e-06
4.29337e-07
3.23304e-06
1.6356e-07
2.73482e-06
-1.25702e-07
2.13929e-06
-5.13545e-07
1.55887e-06
-1.4273e-06
1.12338e-06
-3.84172e-06
5.36566e-07
-8.2875e-06
-1.30761e-05
-4.4876e-07
2.23487e-06
2.37506e-08
2.68275e-06
7.74513e-07
2.72264e-06
1.57744e-06
2.54229e-06
2.33779e-06
2.31308e-06
3.01162e-06
2.06944e-06
3.5769e-06
1.82219e-06
4.02129e-06
1.57974e-06
4.33938e-06
1.34788e-06
4.53079e-06
1.13098e-06
4.59831e-06
9.32384e-07
4.54641e-06
7.54251e-07
4.37859e-06
5.97155e-07
4.08515e-06
4.57002e-07
3.66217e-06
2.97276e-07
3.23086e-06
-8.22278e-08
2.85018e-06
-1.04662e-06
2.34669e-06
-3.33823e-06
1.30929e-06
-7.2501e-06
-1.17668e-05
-9.42189e-07
3.17706e-06
-2.56208e-07
1.99677e-06
8.45317e-07
1.62112e-06
1.90767e-06
1.47993e-06
2.86773e-06
1.35302e-06
3.71573e-06
1.22145e-06
4.44138e-06
1.09653e-06
5.04043e-06
9.80689e-07
5.51485e-06
8.73461e-07
5.87076e-06
7.75075e-07
6.11711e-06
6.86039e-07
6.26513e-06
6.06226e-07
6.32934e-06
5.32951e-07
6.33516e-06
4.51177e-07
6.33371e-06
2.98729e-07
6.3039e-06
-5.24181e-08
6.24718e-06
-9.89906e-07
5.43496e-06
-2.526e-06
3.23049e-06
-5.04563e-06
-8.53627e-06
3.17706e-06
5.17383e-06
6.79495e-06
8.27488e-06
9.6279e-06
1.08493e-05
1.19459e-05
1.29266e-05
1.38e-05
1.45751e-05
1.52611e-05
1.58674e-05
1.64003e-05
1.68515e-05
1.71502e-05
1.70978e-05
1.61079e-05
1.35819e-05
8.53627e-06
)
;

boundaryField
{
    movingWall
    {
        type            calculated;
        value           uniform 0;
    }
    fixedWalls
    {
        type            calculated;
        value           uniform 0;
    }
    frontAndBack
    {
        type            empty;
        value           nonuniform List<scalar> 0();
    }
}


// ************************************************************************* //
