/*--------------------------------*- C++ -*----------------------------------*\
  =========                 |
  \\      /  F ield         | OpenFOAM: The Open Source CFD Toolbox
   \\    /   O peration     | Website:  https://openfoam.org
    \\  /    A nd           | Version:  8
     \\/     M anipulation  |
\*---------------------------------------------------------------------------*/
FoamFile
{
    version     2.0;
    format      ascii;
    class       volVectorField;
    location    "4.5";
    object      U;
}
// * * * * * * * * * * * * * * * * * * * * * * * * * * * * * * * * * * * * * //

dimensions      [0 1 -1 0 0 0 0];

internalField   nonuniform List<vector> 
400
(
(0.00288087 -0.00368582 0)
(0.00584627 -0.00342542 0)
(0.00402634 -0.00117567 0)
(-0.00444939 0.0028767 0)
(-0.0168167 0.00571783 0)
(-0.0319461 0.00753995 0)
(-0.0481653 0.00848969 0)
(-0.0643708 0.00873819 0)
(-0.0796497 0.0084445 0)
(-0.093242 0.00772486 0)
(-0.104499 0.00664908 0)
(-0.112811 0.00522706 0)
(-0.117531 0.00338815 0)
(-0.117983 0.000959739 0)
(-0.113193 -0.00232382 0)
(-0.102074 -0.00624225 0)
(-0.0842022 -0.0104611 0)
(-0.0601829 -0.01414 0)
(-0.0326221 -0.0148972 0)
(-0.00750669 -0.0070362 0)
(-0.000513374 -0.00560107 0)
(-0.00920862 0.00311383 0)
(-0.0220608 0.0124005 0)
(-0.0375404 0.0187894 0)
(-0.0545234 0.0227108 0)
(-0.0720392 0.0246751 0)
(-0.0891452 0.0249398 0)
(-0.105013 0.0237464 0)
(-0.118898 0.0213149 0)
(-0.130167 0.0178324 0)
(-0.138281 0.0134365 0)
(-0.142749 0.00818096 0)
(-0.143046 0.00198895 0)
(-0.138621 -0.00535832 0)
(-0.129494 -0.0137098 0)
(-0.11536 -0.0229658 0)
(-0.0957316 -0.0327056 0)
(-0.0707588 -0.041344 0)
(-0.0422032 -0.0442562 0)
(-0.0136349 -0.030147 0)
(-0.00568047 0.00586985 0)
(-0.0207237 0.018601 0)
(-0.0367494 0.0282679 0)
(-0.0533528 0.0351235 0)
(-0.069847 0.0392125 0)
(-0.08562 0.0406939 0)
(-0.10007 0.0397845 0)
(-0.11265 0.0367631 0)
(-0.122894 0.0319264 0)
(-0.130443 0.0255514 0)
(-0.135059 0.0178577 0)
(-0.136597 0.00896462 0)
(-0.134892 -0.00113865 0)
(-0.129878 -0.0124578 0)
(-0.121638 -0.024932 0)
(-0.109516 -0.0387892 0)
(-0.0927427 -0.0537081 0)
(-0.0707834 -0.0676902 0)
(-0.0445153 -0.0745975 0)
(-0.0158903 -0.0588819 0)
(-0.0073381 0.0206519 0)
(-0.0242881 0.0352135 0)
(-0.0409188 0.044624 0)
(-0.0568262 0.0509792 0)
(-0.0716058 0.0542259 0)
(-0.0849372 0.054405 0)
(-0.0964752 0.0517335 0)
(-0.105923 0.046553 0)
(-0.113069 0.0392606 0)
(-0.117817 0.0302461 0)
(-0.120195 0.0198321 0)
(-0.1203 0.00822098 0)
(-0.118119 -0.00451891 0)
(-0.114015 -0.0183665 0)
(-0.107687 -0.0337972 0)
(-0.0984968 -0.0513591 0)
(-0.0854071 -0.0709611 0)
(-0.0671895 -0.0905709 0)
(-0.0440584 -0.102965 0)
(-0.0159899 -0.0886218 0)
(-0.0067913 0.0356398 0)
(-0.023147 0.0518326 0)
(-0.0387271 0.0602557 0)
(-0.0530146 0.0653444 0)
(-0.0656833 0.0670904 0)
(-0.0765576 0.0655066 0)
(-0.0854576 0.0608443 0)
(-0.0922604 0.0535191 0)
(-0.0969311 0.0440263 0)
(-0.0995507 0.0328594 0)
(-0.100329 0.0204317 0)
(-0.0995378 0.00701475 0)
(-0.0973213 -0.00730676 0)
(-0.0942907 -0.0227059 0)
(-0.0900482 -0.0400634 0)
(-0.0840251 -0.0603906 0)
(-0.0749708 -0.0840901 0)
(-0.0609088 -0.109496 0)
(-0.041799 -0.128526 0)
(-0.0148869 -0.117603 0)
(-0.00517051 0.0490925 0)
(-0.0195441 0.0670629 0)
(-0.0331234 0.0742444 0)
(-0.0452889 0.0777198 0)
(-0.0557125 0.0776882 0)
(-0.0642783 0.0741907 0)
(-0.0708897 0.0675266 0)
(-0.0755146 0.0581861 0)
(-0.0782067 0.0467615 0)
(-0.0791381 0.0338556 0)
(-0.0786251 0.0199917 0)
(-0.0770829 0.00552849 0)
(-0.0748924 -0.00946019 0)
(-0.0728439 -0.0254075 0)
(-0.0705081 -0.043639 0)
(-0.0674967 -0.0657251 0)
(-0.0625423 -0.0927993 0)
(-0.0527524 -0.124008 0)
(-0.0384392 -0.150569 0)
(-0.0131068 -0.144742 0)
(-0.00314355 0.0597528 0)
(-0.0148106 0.0799526 0)
(-0.0259097 0.0860107 0)
(-0.0357335 0.0878779 0)
(-0.0439316 0.0860855 0)
(-0.050413 0.0807416 0)
(-0.0551184 0.0722024 0)
(-0.0580522 0.061031 0)
(-0.0592946 0.0479172 0)
(-0.0590369 0.0335916 0)
(-0.0576226 0.0187272 0)
(-0.0555528 0.00380018 0)
(-0.0534464 -0.0111479 0)
(-0.0520534 -0.0268267 0)
(-0.0510723 -0.0449401 0)
(-0.0504437 -0.0676733 0)
(-0.0493292 -0.0971474 0)
(-0.0435428 -0.133916 0)
(-0.0345799 -0.168644 0)
(-0.0109725 -0.169367 0)
(-0.00107935 0.0669872 0)
(-0.00969565 0.0900162 0)
(-0.0181345 0.0952943 0)
(-0.0255846 0.0957696 0)
(-0.0316667 0.0924264 0)
(-0.036313 0.0854664 0)
(-0.0394918 0.0753052 0)
(-0.0412309 0.0625685 0)
(-0.0416159 0.0480291 0)
(-0.0408201 0.0325394 0)
(-0.0391428 0.0169295 0)
(-0.0370436 0.00180968 0)
(-0.0351927 -0.01273 0)
(-0.0340464 -0.0276899 0)
(-0.0336748 -0.044877 0)
(-0.0343348 -0.0670537 0)
(-0.0364874 -0.0975943 0)
(-0.0340449 -0.13936 0)
(-0.0307028 -0.182601 0)
(-0.0086815 -0.191173 0)
(0.000753309 0.0706577 0)
(-0.00466559 0.0971011 0)
(-0.0104013 0.102054 0)
(-0.0155494 0.101455 0)
(-0.0196469 0.0968803 0)
(-0.0226634 0.0886479 0)
(-0.0246052 0.0772349 0)
(-0.0255375 0.0633163 0)
(-0.0255655 0.0477193 0)
(-0.0248495 0.0313747 0)
(-0.0236113 0.0152211 0)
(-0.02203 -3.39746e-05 0)
(-0.0207867 -0.0142722 0)
(-0.0197563 -0.0286251 0)
(-0.0195661 -0.0445161 0)
(-0.0202708 -0.0650554 0)
(-0.0249216 -0.0949744 0)
(-0.0248689 -0.140788 0)
(-0.0271609 -0.192561 0)
(-0.00635774 -0.210153 0)
(0.00212467 0.0710981 0)
(-5.2485e-05 0.101085 0)
(-0.00308557 0.106381 0)
(-0.00603505 0.105058 0)
(-0.00825145 0.0996024 0)
(-0.00974793 0.0904944 0)
(-0.0105755 0.078274 0)
(-0.010855 0.0636511 0)
(-0.0107323 0.0474724 0)
(-0.0103772 0.0306734 0)
(-0.00998084 0.0141982 0)
(-0.00949375 -0.00119971 0)
(-0.00908559 -0.015465 0)
(-0.00842443 -0.0295723 0)
(-0.00871792 -0.0443645 0)
(-0.00873181 -0.0627141 0)
(-0.0151271 -0.090351 0)
(-0.0163853 -0.138855 0)
(-0.0241455 -0.19884 0)
(-0.00405914 -0.226489 0)
(0.0030762 0.0690126 0)
(0.00386317 0.101962 0)
(0.0034872 0.108246 0)
(0.00268807 0.10668 0)
(0.00230188 0.100696 0)
(0.0023251 0.0910771 0)
(0.00265375 0.0784595 0)
(0.00310014 0.0636052 0)
(0.00346569 0.047389 0)
(0.00356847 0.0307327 0)
(0.00327561 0.0144263 0)
(0.00239697 -0.00118404 0)
(0.00187867 -0.0157269 0)
(0.00163158 -0.0297334 0)
(0.000175336 -0.0439478 0)
(0.000415868 -0.0602024 0)
(-0.00717901 -0.0847135 0)
(-0.00868474 -0.134227 0)
(-0.0216705 -0.201832 0)
(-0.0017707 -0.240448 0)
(0.00371521 0.0647223 0)
(0.00705009 0.100115 0)
(0.00907925 0.107732 0)
(0.010386 0.106242 0)
(0.0118337 0.0999887 0)
(0.0134372 0.0901714 0)
(0.0150287 0.0775593 0)
(0.016355 0.0629527 0)
(0.0171746 0.0472165 0)
(0.0173073 0.0312053 0)
(0.0166948 0.015544 0)
(0.0154244 0.000314435 0)
(0.0134922 -0.0143523 0)
(0.0116215 -0.0283686 0)
(0.00880148 -0.0424065 0)
(0.00775616 -0.0570391 0)
(-0.000875015 -0.0784552 0)
(-0.0016095 -0.127338 0)
(-0.0195876 -0.201915 0)
(0.000588877 -0.252293 0)
(0.00404647 0.0587517 0)
(0.00943702 0.0959563 0)
(0.0135413 0.105026 0)
(0.0168701 0.103856 0)
(0.0201681 0.0975627 0)
(0.0234241 0.0878152 0)
(0.0263948 0.075537 0)
(0.0287654 0.061546 0)
(0.0302612 0.0466502 0)
(0.0307028 0.0315825 0)
(0.0300464 0.0168145 0)
(0.0285048 0.00238675 0)
(0.0255753 -0.0117021 0)
(0.0221538 -0.0253071 0)
(0.0177227 -0.0388431 0)
(0.014433 -0.052881 0)
(0.00419116 -0.0727416 0)
(0.00496836 -0.118304 0)
(-0.017659 -0.199534 0)
(0.00317733 -0.262193 0)
(0.00398715 0.0517209 0)
(0.0108361 0.0899931 0)
(0.0166388 0.100323 0)
(0.0219073 0.0995368 0)
(0.0271163 0.0933613 0)
(0.032134 0.0839062 0)
(0.0366199 0.0722443 0)
(0.0402009 0.059185 0)
(0.0425773 0.0454475 0)
(0.0435657 0.0316332 0)
(0.0431074 0.0181168 0)
(0.0413776 0.00498776 0)
(0.037758 -0.00796823 0)
(0.0330723 -0.0206534 0)
(0.0271078 -0.0333202 0)
(0.0214385 -0.0465952 0)
(0.00884405 -0.06576 0)
(0.0109783 -0.108501 0)
(-0.0155409 -0.195286 0)
(0.00635693 -0.27007 0)
(0.00332666 0.0444203 0)
(0.0108943 0.0827959 0)
(0.0180234 0.0938095 0)
(0.0252181 0.0932381 0)
(0.0324853 0.0872494 0)
(0.0394428 0.0782851 0)
(0.0456173 0.0675086 0)
(0.0505832 0.0556825 0)
(0.0540266 0.0434155 0)
(0.0557612 0.0311848 0)
(0.0557088 0.0192962 0)
(0.0539878 0.0078691 0)
(0.0499579 -0.00349128 0)
(0.0443314 -0.0147171 0)
(0.0370622 -0.0260189 0)
(0.0291047 -0.0381741 0)
(0.0144924 -0.0568005 0)
(0.0163842 -0.0991516 0)
(-0.0125339 -0.189314 0)
(0.0108897 -0.275487 0)
(0.00151179 0.0380557 0)
(0.00894496 0.0749872 0)
(0.0172481 0.0856082 0)
(0.0265333 0.0848169 0)
(0.0361341 0.0790175 0)
(0.0452872 0.0707546 0)
(0.0533586 0.0611539 0)
(0.059886 0.0508733 0)
(0.0645625 0.0403922 0)
(0.0672151 0.0300692 0)
(0.0677695 0.0201423 0)
(0.0662538 0.0107381 0)
(0.0626258 0.00167436 0)
(0.056298 -0.00763493 0)
(0.0479763 -0.0171828 0)
(0.0379249 -0.027919 0)
(0.0221224 -0.0461261 0)
(0.0225209 -0.0905792 0)
(-0.00711913 -0.183252 0)
(0.0177035 -0.277695 0)
(-0.00253515 0.0341216 0)
(0.00365226 0.0674779 0)
(0.0139106 0.0757254 0)
(0.0257501 0.0739797 0)
(0.0381063 0.0683585 0)
(0.0497618 0.0610556 0)
(0.0599432 0.0529565 0)
(0.0681956 0.0445434 0)
(0.0742533 0.0361496 0)
(0.0779814 0.0280185 0)
(0.0793348 0.0203146 0)
(0.0783289 0.0131311 0)
(0.0750569 0.0064274 0)
(0.0691256 -0.000331264 0)
(0.0603174 -0.00788741 0)
(0.0488868 -0.0167819 0)
(0.0335087 -0.0346268 0)
(0.0328678 -0.0828787 0)
(0.00320844 -0.176138 0)
(0.0281499 -0.2741 0)
(-0.00876649 0.0397909 0)
(-0.00680661 0.0590754 0)
(0.00804814 0.0636623 0)
(0.0234438 0.0604661 0)
(0.0391453 0.0552632 0)
(0.0536428 0.0493392 0)
(0.0661724 0.0431681 0)
(0.0763741 0.0370061 0)
(0.0840771 0.0310304 0)
(0.0892274 0.025377 0)
(0.0918522 0.0201457 0)
(0.0920275 0.0154014 0)
(0.0898473 0.0111671 0)
(0.0853508 0.00735538 0)
(0.0781814 0.00362337 0)
(0.0671329 -0.00190808 0)
(0.0568462 -0.0228285 0)
(0.0566619 -0.0749778 0)
(0.0256999 -0.161125 0)
(0.0461554 -0.254191 0)
(-0.0149461 0.0562255 0)
(-0.0171969 0.0447982 0)
(0.00631368 0.0408848 0)
(0.0276692 0.0385941 0)
(0.0477762 0.0355607 0)
(0.0660147 0.0320864 0)
(0.0818864 0.0285752 0)
(0.0952229 0.0251934 0)
(0.106012 0.0220049 0)
(0.11434 0.0190562 0)
(0.120364 0.0163846 0)
(0.124288 0.0140068 0)
(0.126371 0.0118855 0)
(0.126974 0.00975252 0)
(0.126409 0.00625383 0)
(0.1221 -0.00352701 0)
(0.123669 -0.0257187 0)
(0.12158 -0.0648256 0)
(0.0830863 -0.125915 0)
(0.0833683 -0.199891 0)
(0.0659426 0.05672 0)
(0.081014 0.0407713 0)
(0.117895 0.0306324 0)
(0.15096 0.0253408 0)
(0.179585 0.021983 0)
(0.205228 0.0194356 0)
(0.22838 0.0173768 0)
(0.249165 0.0156642 0)
(0.267709 0.0142066 0)
(0.28418 0.0129467 0)
(0.298767 0.0118484 0)
(0.311653 0.0108831 0)
(0.32298 0.0100104 0)
(0.332665 0.00909574 0)
(0.340101 0.00753911 0)
(0.344196 0.00352911 0)
(0.335603 -0.0043701 0)
(0.304688 -0.0192465 0)
(0.231096 -0.0490977 0)
(0.167677 -0.10516 0)
)
;

boundaryField
{
    movingWall
    {
        type            fixedValue;
        value           uniform (1 0 0);
    }
    fixedWalls
    {
        type            noSlip;
    }
    frontAndBack
    {
        type            empty;
    }
}


// ************************************************************************* //
