/*--------------------------------*- C++ -*----------------------------------*\
  =========                 |
  \\      /  F ield         | OpenFOAM: The Open Source CFD Toolbox
   \\    /   O peration     | Website:  https://openfoam.org
    \\  /    A nd           | Version:  8
     \\/     M anipulation  |
\*---------------------------------------------------------------------------*/
FoamFile
{
    version     2.0;
    format      ascii;
    class       volScalarField;
    location    "2";
    object      p;
}
// * * * * * * * * * * * * * * * * * * * * * * * * * * * * * * * * * * * * * //

dimensions      [0 2 -2 0 0 0 0];

internalField   nonuniform List<scalar> 
400
(
6.75306e-08
-3.92361e-05
-0.000115363
-0.000220861
-0.000345491
-0.000484316
-0.000650257
-0.000865376
-0.00113087
-0.00140186
-0.00158166
-0.00153435
-0.00110458
-0.000154034
0.00136731
0.0033684
0.00555479
0.00737695
0.00825231
0.00809821
6.1314e-05
2.89413e-05
-3.6586e-05
-0.000136918
-0.000275283
-0.000451289
-0.000671556
-0.000952492
-0.00129508
-0.00165388
-0.00192915
-0.00198299
-0.00166551
-0.000849194
0.000523015
0.00240312
0.00451582
0.00637019
0.00739796
0.0074596
0.000116001
7.53286e-05
1.49338e-06
-0.000112928
-0.000284478
-0.000532786
-0.000878082
-0.00132918
-0.00186465
-0.00241586
-0.00286745
-0.00307882
-0.00290956
-0.00223604
-0.000989414
0.000764758
0.00281176
0.00474949
0.00600138
0.00628441
9.45278e-05
4.51653e-05
-4.82761e-05
-0.000202791
-0.000449653
-0.00081975
-0.00133486
-0.00199083
-0.00274282
-0.0034997
-0.00413426
-0.0045077
-0.0044898
-0.00396626
-0.00288435
-0.0012979
0.000645816
0.00263997
0.004096
0.0045992
-5.60953e-05
-0.000117172
-0.00024016
-0.000449653
-0.000787058
-0.0012881
-0.00196975
-0.00281449
-0.00376022
-0.00470103
-0.00550212
-0.00602537
-0.00614824
-0.0057717
-0.00486526
-0.00348014
-0.00170213
0.000269757
0.00184673
0.00255117
-0.000343738
-0.000418156
-0.000573335
-0.000837282
-0.00125542
-0.00186466
-0.00267751
-0.00366707
-0.00476025
-0.00584233
-0.00677343
-0.00741304
-0.00764297
-0.00738716
-0.00664715
-0.0054824
-0.00393556
-0.00208285
-0.000496775
0.000367128
-0.000736984
-0.000822765
-0.00100429
-0.00130973
-0.00178392
-0.00246282
-0.00335598
-0.00443183
-0.00561223
-0.00677887
-0.00778944
-0.00849943
-0.00879119
-0.00861707
-0.00801683
-0.00706774
-0.00579791
-0.0041544
-0.00267752
-0.00170734
-0.00118321
-0.00127592
-0.00147316
-0.00180088
-0.00230006
-0.00300434
-0.00392172
-0.00502013
-0.00622198
-0.0074105
-0.00844529
-0.00917998
-0.00949368
-0.00936656
-0.00887331
-0.00810944
-0.00712716
-0.00575278
-0.00448281
-0.0034652
-0.00163265
-0.00172458
-0.0019251
-0.00225429
-0.00274696
-0.00343337
-0.00432086
-0.00537999
-0.006539
-0.00768801
-0.00869477
-0.00941848
-0.00973503
-0.00963301
-0.0092196
-0.00859261
-0.00788037
-0.0067885
-0.00578177
-0.00476785
-0.00204905
-0.00213039
-0.00232133
-0.00263264
-0.00309114
-0.00372241
-0.00453361
-0.00550114
-0.00656695
-0.00762655
-0.00856165
-0.00924108
-0.00954164
-0.00945764
-0.00911428
-0.00857544
-0.00810711
-0.00726454
-0.00653533
-0.005552
-0.00240641
-0.00247447
-0.00264262
-0.00291874
-0.00332211
-0.00387369
-0.00458206
-0.00543009
-0.0063672
-0.00730621
-0.00813617
-0.0087361
-0.00899807
-0.00893955
-0.00864835
-0.0082017
-0.00787635
-0.00724393
-0.00678078
-0.0058183
-0.00269622
-0.00274964
-0.00288331
-0.00310992
-0.00344453
-0.00390521
-0.00450154
-0.00522112
-0.006021
-0.0068263
-0.00753818
-0.00805143
-0.00827774
-0.00822861
-0.00797695
-0.00758719
-0.00733104
-0.00683677
-0.00661736
-0.00560916
-0.00292516
-0.00295902
-0.00304727
-0.00321303
-0.00347179
-0.00383991
-0.00432674
-0.00492306
-0.00559291
-0.00627101
-0.00687192
-0.00730584
-0.00750012
-0.00745723
-0.00723268
-0.00687924
-0.0066676
-0.00615182
-0.00620319
-0.00497269
-0.00310729
-0.00311164
-0.00314365
-0.00323964
-0.00341976
-0.00369967
-0.00408759
-0.00457593
-0.00513381
-0.00570485
-0.00621495
-0.00658683
-0.00675945
-0.00672593
-0.0065181
-0.00618409
-0.00600289
-0.00530263
-0.0057191
-0.00390531
-0.00326334
-0.00321391
-0.00318055
-0.00320067
-0.00330308
-0.0035038
-0.00380923
-0.00421165
-0.0046833
-0.00517458
-0.00562005
-0.00595142
-0.00611473
-0.00609203
-0.00590298
-0.00558441
-0.00539971
-0.00447334
-0.00518907
-0.002298
-0.0034081
-0.00327871
-0.00316414
-0.00310505
-0.00313412
-0.00326841
-0.00351154
-0.00385363
-0.00426782
-0.00470876
-0.00511699
-0.00542981
-0.00559624
-0.00559224
-0.00543072
-0.00513765
-0.0049099
-0.00383054
-0.00433775
0.000184821
-0.00357349
-0.00332174
-0.00309929
-0.00295966
-0.00292381
-0.00300674
-0.00320927
-0.00351698
-0.00390188
-0.00432076
-0.00471783
-0.00503381
-0.00521885
-0.00524539
-0.00511699
-0.00486452
-0.00453373
-0.00322586
-0.00241978
0.00503493
-0.00387475
-0.00337122
-0.00298851
-0.00276739
-0.00268316
-0.00273047
-0.00291176
-0.00320657
-0.00358489
-0.00400431
-0.00441099
-0.00474727
-0.00496269
-0.00502313
-0.00491278
-0.00464083
-0.00412062
-0.00190423
0.00253144
0.0168589
-0.0049209
-0.00354186
-0.0029389
-0.00261922
-0.00248009
-0.00251365
-0.0026947
-0.00299566
-0.00338463
-0.00381932
-0.00424696
-0.00461133
-0.00486475
-0.00498386
-0.00500119
-0.0050553
-0.00382525
0.0016819
0.0135533
0.0391827
-0.00815258
-0.00276523
-0.00163934
-0.00163391
-0.00169401
-0.00181957
-0.00207656
-0.00245148
-0.00290852
-0.00340568
-0.00389125
-0.00430811
-0.00460296
-0.00471758
-0.00445785
-0.00296811
0.00117932
0.0111484
0.0300166
0.0625043
)
;

boundaryField
{
    movingWall
    {
        type            zeroGradient;
    }
    fixedWalls
    {
        type            zeroGradient;
    }
    frontAndBack
    {
        type            empty;
    }
}


// ************************************************************************* //
