/*--------------------------------*- C++ -*----------------------------------*\
  =========                 |
  \\      /  F ield         | OpenFOAM: The Open Source CFD Toolbox
   \\    /   O peration     | Website:  https://openfoam.org
    \\  /    A nd           | Version:  8
     \\/     M anipulation  |
\*---------------------------------------------------------------------------*/
FoamFile
{
    version     2.0;
    format      ascii;
    class       surfaceScalarField;
    location    "2";
    object      phi;
}
// * * * * * * * * * * * * * * * * * * * * * * * * * * * * * * * * * * * * * //

dimensions      [0 3 -1 0 0 0 0];

internalField   nonuniform List<scalar> 
760
(
1.59626e-08
-1.59691e-08
-5.71037e-09
2.16727e-08
-6.95122e-08
6.38015e-08
-2.06935e-07
1.37423e-07
-4.64708e-07
2.57773e-07
-8.75455e-07
4.10747e-07
-1.43616e-06
5.60705e-07
-2.10656e-06
6.704e-07
-2.82498e-06
7.18421e-07
-3.52549e-06
7.00504e-07
-4.14681e-06
6.21325e-07
-4.63413e-06
4.87321e-07
-4.93732e-06
3.03194e-07
-5.00696e-06
6.96313e-08
-4.78771e-06
-2.19248e-07
-4.23247e-06
-5.55243e-07
-3.32577e-06
-9.06699e-07
-2.11441e-06
-1.21136e-06
-8.07233e-07
-1.30718e-06
-8.07233e-07
-1.28245e-07
1.12276e-07
-3.67601e-07
2.61028e-07
-7.03005e-07
3.99206e-07
-1.15628e-06
5.90702e-07
-1.73292e-06
8.34403e-07
-2.40936e-06
1.08719e-06
-3.14595e-06
1.2973e-06
-3.89909e-06
1.42354e-06
-4.62243e-06
1.44176e-06
-5.26608e-06
1.34415e-06
-5.77923e-06
1.13448e-06
-6.1134e-06
8.21491e-07
-6.22363e-06
4.13423e-07
-6.06504e-06
-8.8964e-08
-5.6304e-06
-6.5388e-07
-4.91133e-06
-1.27431e-06
-3.90551e-06
-1.91252e-06
-2.63356e-06
-2.48331e-06
-1.20655e-06
-2.73418e-06
-2.01379e-06
-2.65699e-07
3.77975e-07
-6.6938e-07
6.6471e-07
-1.15739e-06
8.87216e-07
-1.72869e-06
1.162e-06
-2.36912e-06
1.47483e-06
-3.0517e-06
1.76978e-06
-3.74308e-06
1.98867e-06
-4.40729e-06
2.08775e-06
-5.00755e-06
2.04202e-06
-5.50695e-06
1.84355e-06
-5.86952e-06
1.49705e-06
-6.06282e-06
1.01479e-06
-6.06038e-06
4.1098e-07
-5.85222e-06
-2.97125e-07
-5.42832e-06
-1.07778e-06
-4.7817e-06
-1.92093e-06
-3.89064e-06
-2.80358e-06
-2.73771e-06
-3.63624e-06
-1.36154e-06
-4.11035e-06
-3.37533e-06
-3.36144e-07
7.14119e-07
-8.05468e-07
1.13403e-06
-1.33269e-06
1.41444e-06
-1.90668e-06
1.73599e-06
-2.51157e-06
2.07971e-06
-3.12481e-06
2.38302e-06
-3.72094e-06
2.5848e-06
-4.27318e-06
2.63999e-06
-4.75443e-06
2.52327e-06
-5.13819e-06
2.22732e-06
-5.39986e-06
1.75871e-06
-5.51876e-06
1.13369e-06
-5.48112e-06
3.73336e-07
-5.28649e-06
-4.91752e-07
-4.93248e-06
-1.43179e-06
-4.4073e-06
-2.44611e-06
-3.67547e-06
-3.53541e-06
-2.6788e-06
-4.63291e-06
-1.39474e-06
-5.39441e-06
-4.77006e-06
-3.37838e-07
1.05196e-06
-7.99719e-07
1.59592e-06
-1.2968e-06
1.91153e-06
-1.81317e-06
2.25236e-06
-2.33629e-06
2.60282e-06
-2.85038e-06
2.89712e-06
-3.33752e-06
3.07193e-06
-3.77871e-06
3.08118e-06
-4.15467e-06
2.89924e-06
-4.44648e-06
2.51913e-06
-4.63662e-06
1.94886e-06
-4.71108e-06
1.20815e-06
-4.66338e-06
3.25642e-07
-4.50068e-06
-6.54457e-07
-4.23099e-06
-1.70149e-06
-3.84757e-06
-2.82953e-06
-3.3026e-06
-4.08038e-06
-2.49538e-06
-5.44014e-06
-1.3489e-06
-6.54089e-06
-6.11897e-06
-2.90118e-07
1.34207e-06
-6.98349e-07
2.00415e-06
-1.12598e-06
2.33916e-06
-1.55343e-06
2.67981e-06
-1.97205e-06
3.02144e-06
-2.37302e-06
3.2981e-06
-2.74575e-06
3.44466e-06
-3.07819e-06
3.41362e-06
-3.35731e-06
3.17836e-06
-3.56951e-06
2.73132e-06
-3.70163e-06
2.08098e-06
-3.74333e-06
1.24985e-06
-3.69324e-06
2.75545e-07
-3.56616e-06
-7.81534e-07
-3.38432e-06
-1.88333e-06
-3.15092e-06
-3.06293e-06
-2.81121e-06
-4.42008e-06
-2.22113e-06
-6.03021e-06
-1.25135e-06
-7.51067e-06
-7.37032e-06
-2.15092e-07
1.55717e-06
-5.44328e-07
2.33338e-06
-8.83102e-07
2.67793e-06
-1.20758e-06
3.00429e-06
-1.51218e-06
3.32604e-06
-1.79442e-06
3.58033e-06
-2.05078e-06
3.70102e-06
-2.2759e-06
3.63875e-06
-2.46266e-06
3.36512e-06
-2.60219e-06
2.87085e-06
-2.68508e-06
2.16387e-06
-2.70338e-06
1.26815e-06
-2.6571e-06
2.29272e-07
-2.56521e-06
-8.73431e-07
-2.4659e-06
-1.98264e-06
-2.37708e-06
-3.15175e-06
-2.24773e-06
-4.54944e-06
-1.88999e-06
-6.38795e-06
-1.12101e-06
-8.27965e-06
-8.49132e-06
-1.31061e-07
1.68823e-06
-3.71106e-07
2.57343e-06
-6.1562e-07
2.92245e-06
-8.35405e-07
3.22407e-06
-1.02629e-06
3.51692e-06
-1.19099e-06
3.74504e-06
-1.33251e-06
3.84255e-06
-1.45202e-06
3.75825e-06
-1.54876e-06
3.46186e-06
-1.61911e-06
2.9412e-06
-1.65887e-06
2.20363e-06
-1.66401e-06
1.27328e-06
-1.63234e-06
1.97604e-07
-1.57991e-06
-9.25858e-07
-1.55605e-06
-2.0065e-06
-1.59234e-06
-3.11545e-06
-1.66163e-06
-4.48015e-06
-1.53555e-06
-6.51404e-06
-9.76663e-07
-8.83854e-06
-9.46798e-06
-5.23321e-08
1.74056e-06
-2.02831e-07
2.72393e-06
-3.57374e-07
3.07699e-06
-4.79934e-07
3.34663e-06
-5.65777e-07
3.60276e-06
-6.21087e-07
3.80034e-06
-6.54278e-07
3.87574e-06
-6.72116e-07
3.77609e-06
-6.81396e-07
3.47114e-06
-6.82381e-07
2.94219e-06
-6.78054e-07
2.1993e-06
-6.71045e-07
1.26628e-06
-6.68335e-07
1.94894e-07
-6.72885e-07
-9.21308e-07
-7.27681e-07
-1.95171e-06
-8.59628e-07
-2.9835e-06
-1.09962e-06
-4.24015e-06
-1.18773e-06
-6.42594e-06
-8.3358e-07
-9.19269e-06
-1.03016e-05
1.19692e-08
1.72859e-06
-5.6048e-08
2.79194e-06
-1.30616e-07
3.15156e-06
-1.69528e-07
3.38554e-06
-1.65649e-07
3.59889e-06
-1.26441e-07
3.76114e-06
-6.45304e-08
3.81383e-06
6.19315e-09
3.70536e-06
8.31373e-08
3.3942e-06
1.50723e-07
2.8746e-06
2.00516e-07
2.14951e-06
2.24022e-07
1.24277e-06
2.0051e-07
2.18406e-07
1.22431e-07
-8.43229e-07
-3.67524e-09
-1.8256e-06
-2.38624e-07
-2.74856e-06
-5.98185e-07
-3.88059e-06
-8.70563e-07
-6.15356e-06
-7.02822e-07
-9.36043e-06
-1.10044e-05
5.62864e-08
1.67231e-06
5.76343e-08
2.7906e-06
5.11363e-08
3.15806e-06
8.10127e-08
3.35567e-06
1.58463e-07
3.52144e-06
2.76716e-07
3.64288e-06
4.21717e-07
3.66883e-06
5.77723e-07
3.54936e-06
7.24245e-07
3.24768e-06
8.47548e-07
2.7513e-06
9.30333e-07
2.06672e-06
9.51603e-07
1.2215e-06
8.91907e-07
2.78103e-07
7.42276e-07
-6.93598e-07
5.2868e-07
-1.612e-06
2.45027e-07
-2.4649e-06
-1.69629e-07
-3.46593e-06
-5.98796e-07
-5.72439e-06
-5.90514e-07
-9.36871e-06
-1.15949e-05
8.2884e-08
1.58942e-06
1.32894e-07
2.74059e-06
1.80237e-07
3.11071e-06
2.65526e-07
3.27038e-06
4.01846e-07
3.38512e-06
5.82765e-07
3.46196e-06
7.92069e-07
3.45952e-06
1.00932e-06
3.3321e-06
1.21136e-06
3.04564e-06
1.37575e-06
2.58691e-06
1.47928e-06
1.9632e-06
1.49707e-06
1.20371e-06
1.4088e-06
3.66372e-07
1.21009e-06
-4.94888e-07
9.27007e-07
-1.32892e-06
5.83034e-07
-2.12093e-06
1.46677e-07
-3.02958e-06
-3.78146e-07
-5.19957e-06
-4.97879e-07
-9.24897e-06
-1.20928e-05
8.80424e-08
1.50138e-06
1.66227e-07
2.6624e-06
2.53996e-07
3.02294e-06
3.83376e-07
3.141e-06
5.65647e-07
3.20285e-06
7.94362e-07
3.23325e-06
1.05183e-06
3.20205e-06
1.31453e-06
3.0694e-06
1.55567e-06
2.8045e-06
1.74807e-06
2.39451e-06
1.86465e-06
1.84662e-06
1.87953e-06
1.18882e-06
1.77491e-06
4.70993e-07
1.54607e-06
-2.66044e-07
1.21529e-06
-9.98138e-07
8.0649e-07
-1.71213e-06
3.40298e-07
-2.56338e-06
-2.05611e-07
-4.65366e-06
-4.21201e-07
-9.03338e-06
-1.2514e-05
6.48812e-08
1.4365e-06
1.52518e-07
2.57476e-06
2.68889e-07
2.90657e-06
4.34257e-07
2.97563e-06
6.53853e-07
2.98325e-06
9.19512e-07
2.96759e-06
1.21259e-06
2.90897e-06
1.50778e-06
2.77421e-06
1.77612e-06
2.53616e-06
1.98787e-06
2.18277e-06
2.11439e-06
1.7201e-06
2.13087e-06
1.17234e-06
2.02232e-06
5.79542e-07
1.77806e-06
-2.17907e-08
1.41831e-06
-6.38388e-07
9.61339e-07
-1.25515e-06
4.58867e-07
-2.06091e-06
-7.38491e-08
-4.12094e-06
-3.43972e-07
-8.76326e-06
-1.2858e-05
4.77464e-09
1.43172e-06
8.46103e-08
2.49493e-06
2.2241e-07
2.76877e-06
4.19867e-07
2.77818e-06
6.7299e-07
2.73013e-06
9.6976e-07
2.67082e-06
1.29063e-06
2.58811e-06
1.6099e-06
2.45493e-06
1.89817e-06
2.24789e-06
2.12506e-06
1.95587e-06
2.26207e-06
1.58309e-06
2.28579e-06
1.14862e-06
2.18233e-06
6.83003e-07
1.94441e-06
2.16131e-07
1.56923e-06
-2.63205e-07
1.08255e-06
-7.6848e-07
5.5704e-07
-1.5354e-06
7.8239e-08
-3.64214e-06
-2.09472e-07
-8.47555e-06
-1.30674e-05
-1.14694e-07
1.54642e-06
-5.26448e-08
2.43288e-06
1.10675e-07
2.60545e-06
3.43229e-07
2.54562e-06
6.31952e-07
2.4414e-06
9.59487e-07
2.34329e-06
1.30549e-06
2.2421e-06
1.64529e-06
2.11513e-06
1.95072e-06
1.94246e-06
2.19256e-06
1.71404e-06
2.34361e-06
1.43204e-06
2.38207e-06
1.11016e-06
2.29481e-06
7.70263e-07
2.07652e-06
4.34424e-07
1.71401e-06
9.93054e-08
1.22288e-06
-2.77353e-07
7.06882e-07
-1.0194e-06
3.55179e-07
-3.29044e-06
5.88497e-08
-8.17922e-06
-1.30086e-05
-3.08106e-07
1.85452e-06
-2.75886e-07
2.40066e-06
-7.05857e-08
2.40015e-06
2.12278e-07
2.26276e-06
5.47435e-07
2.10625e-06
9.1135e-07
1.97937e-06
1.28513e-06
1.86832e-06
1.64711e-06
1.75315e-06
1.97207e-06
1.6175e-06
2.23348e-06
1.45263e-06
2.40676e-06
1.25876e-06
2.47256e-06
1.04435e-06
2.41965e-06
8.23176e-07
2.24537e-06
6.08705e-07
1.93924e-06
4.05438e-07
1.47774e-06
1.84143e-07
1.05716e-06
-5.98821e-07
8.40757e-07
-3.07403e-06
4.11471e-07
-7.74993e-06
-1.25971e-05
-6.2311e-07
2.47763e-06
-5.7901e-07
2.35656e-06
-2.74204e-07
2.09535e-06
9.85272e-08
1.89003e-06
5.04657e-07
1.70012e-06
9.20566e-07
1.56346e-06
1.335e-06
1.45389e-06
1.73216e-06
1.35599e-06
2.0918e-06
1.25786e-06
2.39211e-06
1.15232e-06
2.61304e-06
1.03784e-06
2.73938e-06
9.1801e-07
2.76223e-06
8.00318e-07
2.67658e-06
6.94363e-07
2.48134e-06
6.00679e-07
2.2591e-06
4.0638e-07
2.18502e-06
-5.24746e-07
1.98175e-06
-2.87076e-06
1.14762e-06
-6.9158e-06
-1.14495e-05
-8.98179e-07
3.37581e-06
-5.52506e-07
2.01089e-06
6.08855e-08
1.48195e-06
6.69587e-07
1.28133e-06
1.23123e-06
1.13847e-06
1.77347e-06
1.02122e-06
2.29815e-06
9.29205e-07
2.79845e-06
8.55696e-07
3.2638e-06
7.92508e-07
3.68177e-06
7.34356e-07
4.04093e-06
6.78676e-07
4.3342e-06
6.24734e-07
4.56231e-06
5.72207e-07
4.74231e-06
5.1437e-07
4.93912e-06
4.03861e-07
5.24695e-06
9.85573e-08
5.53163e-06
-8.09431e-07
5.0412e-06
-2.38033e-06
3.05092e-06
-4.92552e-06
-8.39857e-06
3.37581e-06
5.3867e-06
6.86865e-06
8.14998e-06
9.28845e-06
1.03097e-05
1.12389e-05
1.20946e-05
1.28871e-05
1.36214e-05
1.43001e-05
1.49249e-05
1.54971e-05
1.60114e-05
1.64153e-05
1.65138e-05
1.57044e-05
1.33241e-05
8.39857e-06
)
;

boundaryField
{
    movingWall
    {
        type            calculated;
        value           uniform 0;
    }
    fixedWalls
    {
        type            calculated;
        value           uniform 0;
    }
    frontAndBack
    {
        type            empty;
        value           nonuniform List<scalar> 0();
    }
}


// ************************************************************************* //
