/*--------------------------------*- C++ -*----------------------------------*\
  =========                 |
  \\      /  F ield         | OpenFOAM: The Open Source CFD Toolbox
   \\    /   O peration     | Website:  https://openfoam.org
    \\  /    A nd           | Version:  8
     \\/     M anipulation  |
\*---------------------------------------------------------------------------*/
FoamFile
{
    version     2.0;
    format      ascii;
    class       volVectorField;
    location    "2";
    object      U;
}
// * * * * * * * * * * * * * * * * * * * * * * * * * * * * * * * * * * * * * //

dimensions      [0 1 -1 0 0 0 0];

internalField   nonuniform List<vector> 
400
(
(0.000363539 -0.00070551 0)
(0.000258251 -0.000750671 0)
(-0.000516993 -0.000685656 0)
(-0.00233858 -0.000415892 0)
(-0.00602229 0.000428764 0)
(-0.0125256 0.00205085 0)
(-0.0223507 0.00417471 0)
(-0.0350607 0.00614508 0)
(-0.0494337 0.00742972 0)
(-0.064045 0.00786929 0)
(-0.0775971 0.00753889 0)
(-0.088941 0.00655659 0)
(-0.0969974 0.00498556 0)
(-0.100717 0.00277288 0)
(-0.0992205 -0.000301127 0)
(-0.0911481 -0.00427153 0)
(-0.0759977 -0.0085946 0)
(-0.0545444 -0.0123307 0)
(-0.0294209 -0.0132025 0)
(-0.00639497 -0.00597472 0)
(-0.000633811 0.000196811 0)
(-0.00454058 0.00181051 0)
(-0.0101279 0.00358985 0)
(-0.0179428 0.00643577 0)
(-0.0283089 0.0105351 0)
(-0.0409859 0.0150784 0)
(-0.0553192 0.0189826 0)
(-0.0705082 0.0214634 0)
(-0.0856199 0.0221484 0)
(-0.0996252 0.0209742 0)
(-0.111481 0.0180416 0)
(-0.120186 0.0135046 0)
(-0.124786 0.00748869 0)
(-0.124365 1.73266e-05 0)
(-0.118092 -0.00894034 0)
(-0.106203 -0.0188092 0)
(-0.0885895 -0.028898 0)
(-0.0656085 -0.0375997 0)
(-0.0390579 -0.0405443 0)
(-0.0122563 -0.0269966 0)
(-0.00177874 0.00461858 0)
(-0.00893357 0.0089996 0)
(-0.0177712 0.0127218 0)
(-0.0284045 0.0175421 0)
(-0.0406313 0.0232521 0)
(-0.054034 0.0288403 0)
(-0.0679929 0.0332039 0)
(-0.0818021 0.0354879 0)
(-0.0947117 0.0352079 0)
(-0.105951 0.0322134 0)
(-0.114764 0.0265784 0)
(-0.120463 0.0184959 0)
(-0.122467 0.00819089 0)
(-0.120224 -0.00412554 0)
(-0.113639 -0.0180191 0)
(-0.102792 -0.0329307 0)
(-0.0872161 -0.0482805 0)
(-0.0666236 -0.0622107 0)
(-0.0418838 -0.0690092 0)
(-0.0147765 -0.0537577 0)
(-0.00242487 0.0108838 0)
(-0.0110808 0.0179887 0)
(-0.0210187 0.0231144 0)
(-0.0321008 0.0291881 0)
(-0.0440063 0.0358335 0)
(-0.0563535 0.0418585 0)
(-0.0686442 0.0460821 0)
(-0.0803373 0.0476174 0)
(-0.0908741 0.0459525 0)
(-0.0996945 0.0409259 0)
(-0.10627 0.0326445 0)
(-0.110158 0.0213918 0)
(-0.111015 0.00755462 0)
(-0.108456 -0.00841998 0)
(-0.102812 -0.0259582 0)
(-0.0939869 -0.0448122 0)
(-0.0813658 -0.0647044 0)
(-0.0639857 -0.0839549 0)
(-0.0419456 -0.0959921 0)
(-0.0151685 -0.0819471 0)
(-0.00240723 0.0177318 0)
(-0.0111185 0.0274042 0)
(-0.0207219 0.0334454 0)
(-0.030926 0.0401604 0)
(-0.0414242 0.0471703 0)
(-0.0519425 0.0531799 0)
(-0.0621224 0.0569437 0)
(-0.0715761 0.0575518 0)
(-0.0799054 0.0544938 0)
(-0.0867095 0.0476258 0)
(-0.0916108 0.0370952 0)
(-0.0943054 0.0232662 0)
(-0.0945661 0.0066735 0)
(-0.0921326 -0.0120294 0)
(-0.0876904 -0.0322183 0)
(-0.0812206 -0.0539469 0)
(-0.0720515 -0.0775762 0)
(-0.0584631 -0.102153 0)
(-0.0400996 -0.120529 0)
(-0.014295 -0.109695 0)
(-0.0018989 0.0240864 0)
(-0.00968066 0.0361839 0)
(-0.0180983 0.0427594 0)
(-0.0267092 0.0496554 0)
(-0.035248 0.0566373 0)
(-0.0435624 0.062373 0)
(-0.0514377 0.0655741 0)
(-0.0586293 0.0653057 0)
(-0.064874 0.061048 0)
(-0.0698919 0.0526597 0)
(-0.0734026 0.0403105 0)
(-0.0751629 0.0244324 0)
(-0.0749903 0.00572932 0)
(-0.0727886 -0.0148586 0)
(-0.0695884 -0.0366178 0)
(-0.065573 -0.0600184 0)
(-0.0601784 -0.0864019 0)
(-0.0507456 -0.116168 0)
(-0.0369853 -0.141789 0)
(-0.0126643 -0.135823 0)
(-0.00114281 0.0292103 0)
(-0.00741608 0.0436319 0)
(-0.0142092 0.0504775 0)
(-0.0208932 0.0572172 0)
(-0.0272335 0.0639077 0)
(-0.0331884 0.0692428 0)
(-0.038683 0.0719033 0)
(-0.0436112 0.07092 0)
(-0.0478373 0.0657448 0)
(-0.0511925 0.0562131 0)
(-0.053485 0.0424951 0)
(-0.0545029 0.0250742 0)
(-0.0540282 0.00483526 0)
(-0.0521179 -0.016889 0)
(-0.0500868 -0.0391914 0)
(-0.0483619 -0.0629941 0)
(-0.0468467 -0.0909249 0)
(-0.0416047 -0.125562 0)
(-0.0331876 -0.15916 0)
(-0.0106059 -0.159544 0)
(-0.000345474 0.032718 0)
(-0.00484573 0.0493786 0)
(-0.00986685 0.0563425 0)
(-0.0145588 0.0626783 0)
(-0.0186889 0.0688795 0)
(-0.0222984 0.0737366 0)
(-0.0254387 0.0759192 0)
(-0.0281357 0.0744177 0)
(-0.0303836 0.0686462 0)
(-0.0321307 0.0583906 0)
(-0.0332987 0.0438053 0)
(-0.0337515 0.0253872 0)
(-0.0331758 0.00413567 0)
(-0.0317318 -0.0181767 0)
(-0.0308907 -0.0401861 0)
(-0.031025 -0.0631979 0)
(-0.0332394 -0.0912339 0)
(-0.0318468 -0.130214 0)
(-0.0292216 -0.172332 0)
(-0.00833686 -0.180437 0)
(0.000332572 0.0345489 0)
(-0.00236148 0.0533198 0)
(-0.00565096 0.0603406 0)
(-0.00847756 0.0660937 0)
(-0.0105663 0.071636 0)
(-0.0120008 0.0759362 0)
(-0.0129324 0.0776867 0)
(-0.0134983 0.075845 0)
(-0.0138271 0.0698218 0)
(-0.0139777 0.0592963 0)
(-0.0139783 0.0444247 0)
(-0.0138698 0.0256603 0)
(-0.0133372 0.00390503 0)
(-0.0127811 -0.0186421 0)
(-0.0135028 -0.0398052 0)
(-0.014938 -0.0612017 0)
(-0.0204474 -0.0878279 0)
(-0.0222197 -0.130357 0)
(-0.0255176 -0.181299 0)
(-0.00601103 -0.198413 0)
(0.000784417 0.0348769 0)
(-0.000244701 0.0555188 0)
(-0.001948 0.0626263 0)
(-0.0031557 0.0676744 0)
(-0.00350183 0.0724113 0)
(-0.00306703 0.0760718 0)
(-0.00206434 0.0774285 0)
(-0.000665507 0.0754214 0)
(0.000829209 0.0692869 0)
(0.00219812 0.0587969 0)
(0.00338519 0.0440963 0)
(0.0041072 0.0256492 0)
(0.00461792 0.00442071 0)
(0.00396052 -0.0174873 0)
(0.00125773 -0.0376432 0)
(-0.00127977 -0.0573904 0)
(-0.00932744 -0.0815193 0)
(-0.0132942 -0.126508 0)
(-0.0223717 -0.186324 0)
(-0.0037235 -0.213637 0)
(0.00102363 0.0341904 0)
(0.00134563 0.0561089 0)
(0.000993654 0.0633961 0)
(0.00112217 0.0677245 0)
(0.00220214 0.0715575 0)
(0.00418889 0.074448 0)
(0.00683047 0.0752788 0)
(0.00985337 0.0730246 0)
(0.0128932 0.0669132 0)
(0.0155992 0.0567446 0)
(0.0177124 0.0426242 0)
(0.018838 0.0250566 0)
(0.0190659 0.00513763 0)
(0.0171682 -0.015209 0)
(0.0130737 -0.0342851 0)
(0.00918887 -0.0518375 0)
(-0.000462514 -0.0730287 0)
(-0.00540048 -0.119288 0)
(-0.0199239 -0.187866 0)
(-0.0014991 -0.226443 0)
(0.00108665 0.0327432 0)
(0.00234437 0.0555252 0)
(0.00303431 0.0629433 0)
(0.00424864 0.0665324 0)
(0.0064619 0.0693612 0)
(0.00967059 0.0713748 0)
(0.0136076 0.0716351 0)
(0.0179117 0.069179 0)
(0.0221515 0.06329 0)
(0.0258712 0.053721 0)
(0.0286422 0.040607 0)
(0.0299862 0.0245211 0)
(0.029772 0.00663034 0)
(0.0270195 -0.0117438 0)
(0.0218627 -0.0293408 0)
(0.0164739 -0.0458806 0)
(0.00555645 -0.0646227 0)
(0.00125554 -0.109307 0)
(-0.0181707 -0.186516 0)
(0.00071629 -0.237252 0)
(0.000945219 0.0309418 0)
(0.00267582 0.054145 0)
(0.00408368 0.0615304 0)
(0.00615295 0.0643405 0)
(0.00926446 0.0661218 0)
(0.0134167 0.067208 0)
(0.0183343 0.0668827 0)
(0.0235992 0.0642846 0)
(0.0287132 0.0587627 0)
(0.0331392 0.050054 0)
(0.0363472 0.0383089 0)
(0.0378073 0.0241131 0)
(0.0372526 0.00853923 0)
(0.0340418 -0.00750769 0)
(0.028208 -0.0231928 0)
(0.0217428 -0.0383362 0)
(0.00886313 -0.0559425 0)
(0.00657422 -0.0982264 0)
(-0.0169374 -0.183019 0)
(0.0030864 -0.24646 0)
(0.000507694 0.0292711 0)
(0.00219952 0.0523911 0)
(0.00405598 0.0594306 0)
(0.0067992 0.0613569 0)
(0.0106512 0.0620665 0)
(0.0155516 0.0622156 0)
(0.0212079 0.0613155 0)
(0.027172 0.0586348 0)
(0.0329026 0.053593 0)
(0.0378138 0.0459397 0)
(0.0413257 0.0358126 0)
(0.0428974 0.0237446 0)
(0.0422016 0.0106365 0)
(0.0388362 -0.00286083 0)
(0.0326516 -0.0162901 0)
(0.0255289 -0.0296464 0)
(0.0105204 -0.0462194 0)
(0.010922 -0.0871556 0)
(-0.0158625 -0.178266 0)
(0.00598275 -0.254289 0)
(-0.00039854 0.0282922 0)
(0.000654078 0.0507034 0)
(0.00285699 0.0568755 0)
(0.00617689 0.0577194 0)
(0.0107031 0.0573295 0)
(0.0162564 0.0565693 0)
(0.0225083 0.0551393 0)
(0.029 0.0524425 0)
(0.03518 0.0479745 0)
(0.0404492 0.0415039 0)
(0.0442176 0.0331367 0)
(0.0459572 0.0233109 0)
(0.0453029 0.0127347 0)
(0.0420959 0.00205485 0)
(0.0358942 -0.00897284 0)
(0.0283593 -0.0202009 0)
(0.0118499 -0.0358959 0)
(0.0146885 -0.0769707 0)
(-0.0141855 -0.172938 0)
(0.0101265 -0.26061 0)
(-0.00189569 0.0292968 0)
(-0.00223608 0.0491894 0)
(0.000277458 0.053897 0)
(0.00428137 0.0534419 0)
(0.00954152 0.0519367 0)
(0.0157633 0.0503349 0)
(0.022575 0.0484614 0)
(0.0295236 0.0458305 0)
(0.03608 0.0420124 0)
(0.041668 0.0367959 0)
(0.0457197 0.0302456 0)
(0.047737 0.0226903 0)
(0.0473658 0.0146527 0)
(0.0444624 0.00665253 0)
(0.0387514 -0.00146421 0)
(0.0310533 -0.0103849 0)
(0.0144194 -0.0255202 0)
(0.0186685 -0.0693989 0)
(-0.0103029 -0.167967 0)
(0.016527 -0.264648 0)
(-0.00445442 0.0333549 0)
(-0.00690767 0.0483153 0)
(-0.00385475 0.0503429 0)
(0.00112107 0.0483957 0)
(0.00744759 0.0457832 0)
(0.0144682 0.0434663 0)
(0.0219134 0.041278 0)
(0.0293544 0.0388044 0)
(0.0363186 0.0356865 0)
(0.0422877 0.0317362 0)
(0.0467455 0.0269765 0)
(0.0492446 0.0216266 0)
(0.0494703 0.0160376 0)
(0.0472956 0.0105549 0)
(0.0427042 0.00521866 0)
(0.0351993 -0.00126256 0)
(0.020243 -0.0161436 0)
(0.0261887 -0.0652453 0)
(-0.00116587 -0.163979 0)
(0.0266124 -0.263367 0)
(-0.00898108 0.0436548 0)
(-0.0139569 0.0483842 0)
(-0.00897672 0.0463257 0)
(-0.00214818 0.0427396 0)
(0.00604559 0.0389271 0)
(0.0141786 0.0361767 0)
(0.0225289 0.0339044 0)
(0.030712 0.031733 0)
(0.0383553 0.0293774 0)
(0.0450399 0.0266814 0)
(0.0503425 0.0236346 0)
(0.0539017 0.0203603 0)
(0.0554669 0.0170816 0)
(0.0549058 0.0140893 0)
(0.0521836 0.0117449 0)
(0.0465475 0.00988018 0)
(0.0384382 -0.00702703 0)
(0.0471005 -0.0627164 0)
(0.0203438 -0.152964 0)
(0.0442637 -0.246631 0)
(-0.0127975 0.0606399 0)
(-0.0182635 0.0415717 0)
(-0.00551149 0.0323646 0)
(0.0076684 0.0289588 0)
(0.0190382 0.0261935 0)
(0.0300412 0.0239418 0)
(0.0407453 0.0221655 0)
(0.0510256 0.0207041 0)
(0.0607178 0.0193627 0)
(0.0695986 0.0180169 0)
(0.0774254 0.0166228 0)
(0.0840027 0.0151992 0)
(0.0892573 0.0137943 0)
(0.0933548 0.0123521 0)
(0.0968726 0.00997958 0)
(0.0962752 0.00209649 0)
(0.105111 -0.0199364 0)
(0.110917 -0.0599752 0)
(0.0774036 -0.121978 0)
(0.0812088 -0.195671 0)
(0.0681413 0.0606453 0)
(0.0858326 0.0439925 0)
(0.121052 0.0329344 0)
(0.150816 0.026699 0)
(0.175181 0.022625 0)
(0.196505 0.0196042 0)
(0.215854 0.0172629 0)
(0.233634 0.0154105 0)
(0.250075 0.0139115 0)
(0.265321 0.0126696 0)
(0.279444 0.0116192 0)
(0.292477 0.0107139 0)
(0.304429 0.00991398 0)
(0.315171 0.00913294 0)
(0.324075 0.00792521 0)
(0.330541 0.00444774 0)
(0.325642 -0.00320407 0)
(0.298064 -0.0178905 0)
(0.227115 -0.0476173 0)
(0.165633 -0.103267 0)
)
;

boundaryField
{
    movingWall
    {
        type            fixedValue;
        value           uniform (1 0 0);
    }
    fixedWalls
    {
        type            noSlip;
    }
    frontAndBack
    {
        type            empty;
    }
}


// ************************************************************************* //
