/*--------------------------------*- C++ -*----------------------------------*\
  =========                 |
  \\      /  F ield         | OpenFOAM: The Open Source CFD Toolbox
   \\    /   O peration     | Website:  https://openfoam.org
    \\  /    A nd           | Version:  8
     \\/     M anipulation  |
\*---------------------------------------------------------------------------*/
FoamFile
{
    version     2.0;
    format      ascii;
    class       volScalarField;
    location    "5.5";
    object      p;
}
// * * * * * * * * * * * * * * * * * * * * * * * * * * * * * * * * * * * * * //

dimensions      [0 2 -2 0 0 0 0];

internalField   nonuniform List<scalar> 
400
(
4.22438e-08
-0.000176427
-0.000379939
-0.000619648
-0.000983931
-0.00148156
-0.00210221
-0.00278384
-0.0034262
-0.00390796
-0.00410024
-0.00387365
-0.00311026
-0.00173763
0.000243161
0.00271813
0.00534813
0.00751229
0.00855537
0.00838806
0.000169104
1.81056e-05
-0.000249015
-0.000565033
-0.000989262
-0.00156053
-0.00226442
-0.00303306
-0.00376099
-0.00432468
-0.00459936
-0.00446607
-0.00381902
-0.00261819
-0.000795204
0.00153432
0.00406908
0.00627136
0.00750211
0.00759386
0.00048568
0.000216257
-0.000154664
-0.000634255
-0.00126058
-0.00204123
-0.00293982
-0.0038753
-0.00473718
-0.00540565
-0.00577049
-0.00574033
-0.00523261
-0.00414655
-0.00249401
-0.000348881
0.00207861
0.0043537
0.00582842
0.00617523
0.00057525
0.000223718
-0.000310115
-0.00100982
-0.00188105
-0.00289684
-0.00399482
-0.0050825
-0.00605138
-0.00679548
-0.00722753
-0.00727852
-0.00687737
-0.0059668
-0.00454502
-0.00264213
-0.000377668
0.00192317
0.00359906
0.00418774
0.000262547
-0.00014607
-0.000815409
-0.00170272
-0.0027763
-0.00397745
-0.0052233
-0.00641384
-0.0074459
-0.00822949
-0.00869926
-0.00880786
-0.00850698
-0.00777418
-0.00660932
-0.00499923
-0.00297801
-0.000750014
0.0010202
0.00181678
-0.000447046
-0.000877003
-0.00162315
-0.00262479
-0.00382264
-0.00513327
-0.00645779
-0.00769118
-0.00873609
-0.00951661
-0.00998548
-0.0101168
-0.00989358
-0.00932661
-0.00841897
-0.00712882
-0.00542416
-0.00337555
-0.00163792
-0.000687217
-0.00140259
-0.00182411
-0.00259363
-0.00363986
-0.00488663
-0.00623408
-0.00757249
-0.0087939
-0.00980613
-0.0105447
-0.010978
-0.0111021
-0.0109306
-0.0104993
-0.00981882
-0.00883786
-0.0074897
-0.00570553
-0.00412002
-0.00307314
-0.00241646
-0.00281332
-0.00357087
-0.00461108
-0.00585009
-0.00717989
-0.00848547
-0.0096581
-0.0106099
-0.0112856
-0.011667
-0.0117688
-0.0116252
-0.0112897
-0.0107816
-0.010057
-0.00905577
-0.00757761
-0.00622941
-0.00514128
-0.00334378
-0.00370092
-0.00442749
-0.00542992
-0.00662546
-0.00790503
-0.00915365
-0.0102639
-0.0111513
-0.0117668
-0.0121001
-0.0121704
-0.0120451
-0.0117673
-0.011367
-0.0108181
-0.0101096
-0.00892738
-0.00785255
-0.00676194
-0.0040968
-0.00439536
-0.00507878
-0.00602441
-0.00715689
-0.00837131
-0.00955741
-0.0106109
-0.0114491
-0.0120242
-0.0123297
-0.0123924
-0.0122714
-0.0120089
-0.0116575
-0.0111922
-0.0107103
-0.00976743
-0.00895377
-0.00786886
-0.0046229
-0.00486884
-0.00548715
-0.00636105
-0.00741808
-0.00856265
-0.00969137
-0.0107029
-0.0115144
-0.0120747
-0.0123729
-0.0124382
-0.0123159
-0.0120431
-0.0117051
-0.0112326
-0.0109312
-0.0101422
-0.0095424
-0.00843672
-0.00491846
-0.00511954
-0.00566066
-0.00644901
-0.00742088
-0.00849306
-0.00956907
-0.0105495
-0.0113493
-0.0119121
-0.0122181
-0.0122893
-0.0121596
-0.0118753
-0.0115025
-0.011022
-0.0107841
-0.0100743
-0.00965473
-0.00845793
-0.00502257
-0.00517588
-0.0056234
-0.00630997
-0.00718781
-0.00818587
-0.0092128
-0.0101691
-0.0109659
-0.0115401
-0.0118622
-0.0119349
-0.0117987
-0.0114999
-0.0110884
-0.0105786
-0.0103046
-0.00956739
-0.00938233
-0.00790751
-0.00498995
-0.00508432
-0.00540795
-0.00596631
-0.00673772
-0.00766119
-0.00864589
-0.00958831
-0.0103927
-0.0109872
-0.0113316
-0.0114152
-0.0112771
-0.0109601
-0.0105048
-0.00994945
-0.00959024
-0.00863057
-0.00883652
-0.00667481
-0.00487819
-0.00489171
-0.00504583
-0.00544104
-0.00609269
-0.00694564
-0.00790163
-0.00884695
-0.00967556
-0.0103052
-0.0106847
-0.0107929
-0.0106617
-0.0103245
-0.00982083
-0.00920411
-0.00870636
-0.00750124
-0.00785783
-0.00456066
-0.00474603
-0.00462352
-0.00455467
-0.00475444
-0.0052813
-0.00607792
-0.00702756
-0.00799926
-0.00887347
-0.00955676
-0.00998851
-0.0101397
-0.0100201
-0.00967016
-0.00912785
-0.00844373
-0.00774562
-0.00627713
-0.006185
-0.00132425
-0.00466135
-0.00425321
-0.00392972
-0.00392133
-0.00433972
-0.00511066
-0.00608638
-0.00711344
-0.00805758
-0.00881483
-0.00931642
-0.00952735
-0.00944296
-0.00909899
-0.0085352
-0.00777592
-0.00678755
-0.00478516
-0.00315393
0.00472866
-0.00462984
-0.00380388
-0.00317097
-0.00296581
-0.00331928
-0.00410945
-0.0051476
-0.00625764
-0.0072924
-0.00813979
-0.00872528
-0.0090093
-0.008981
-0.00864887
-0.0080328
-0.00715753
-0.0057559
-0.00237035
0.0031874
0.0181217
-0.00512945
-0.00334569
-0.00237087
-0.00203884
-0.00239693
-0.00325509
-0.00438779
-0.00560015
-0.00673498
-0.00767616
-0.00834781
-0.00870997
-0.00875315
-0.00849579
-0.00799161
-0.00720995
-0.0045576
0.00234364
0.0154524
0.0419263
-0.00823943
-0.00210554
-0.000484935
-0.000523745
-0.00115298
-0.00218726
-0.00348227
-0.00484664
-0.00611486
-0.0071703
-0.00793898
-0.00838063
-0.00847572
-0.00817892
-0.00721945
-0.00465063
0.000817119
0.0122044
0.0323209
0.0657682
)
;

boundaryField
{
    movingWall
    {
        type            zeroGradient;
    }
    fixedWalls
    {
        type            zeroGradient;
    }
    frontAndBack
    {
        type            empty;
    }
}


// ************************************************************************* //
