/*--------------------------------*- C++ -*----------------------------------*\
  =========                 |
  \\      /  F ield         | OpenFOAM: The Open Source CFD Toolbox
   \\    /   O peration     | Website:  https://openfoam.org
    \\  /    A nd           | Version:  8
     \\/     M anipulation  |
\*---------------------------------------------------------------------------*/
FoamFile
{
    version     2.0;
    format      ascii;
    class       surfaceScalarField;
    location    "5.5";
    object      phi;
}
// * * * * * * * * * * * * * * * * * * * * * * * * * * * * * * * * * * * * * //

dimensions      [0 3 -1 0 0 0 0];

internalField   nonuniform List<scalar> 
760
(
2.44895e-07
-2.44899e-07
2.49137e-07
-4.24223e-09
-3.10207e-08
2.80158e-07
-5.73824e-07
5.42803e-07
-1.27804e-06
7.0422e-07
-2.06993e-06
7.91888e-07
-2.88772e-06
8.17786e-07
-3.67991e-06
7.92196e-07
-4.40395e-06
7.24035e-07
-5.02433e-06
6.20376e-07
-5.51048e-06
4.86156e-07
-5.8332e-06
3.22714e-07
-5.95994e-06
1.2674e-07
-5.85094e-06
-1.08996e-07
-5.46174e-06
-3.89198e-07
-4.75256e-06
-7.09185e-07
-3.70401e-06
-1.04854e-06
-2.35398e-06
-1.35004e-06
-9.11156e-07
-1.44282e-06
-9.11156e-07
-2.55143e-07
1.02433e-08
-8.08473e-07
5.49088e-07
-1.55701e-06
1.02869e-06
-2.37996e-06
1.36576e-06
-3.2486e-06
1.57286e-06
-4.11872e-06
1.662e-06
-4.94595e-06
1.64503e-06
-5.69038e-06
1.53662e-06
-6.31725e-06
1.3509e-06
-6.797e-06
1.10013e-06
-7.10453e-06
7.93688e-07
-7.218e-06
4.36184e-07
-7.10121e-06
9.94151e-09
-6.76591e-06
-4.44295e-07
-6.1895e-06
-9.656e-07
-5.35533e-06
-1.54336e-06
-4.24243e-06
-2.16145e-06
-2.86101e-06
-2.73146e-06
-1.32082e-06
-2.98301e-06
-2.23197e-06
-6.63542e-07
6.73785e-07
-1.48451e-06
1.37006e-06
-2.31969e-06
1.86387e-06
-3.15567e-06
2.20174e-06
-3.96708e-06
2.38426e-06
-4.72447e-06
2.4194e-06
-5.39991e-06
2.32047e-06
-5.96821e-06
2.10492e-06
-6.40893e-06
1.79162e-06
-6.70723e-06
1.39843e-06
-6.85311e-06
9.39574e-07
-6.83863e-06
4.21697e-07
-6.67286e-06
-1.5583e-07
-6.33942e-06
-7.77737e-07
-5.83255e-06
-1.47247e-06
-5.11872e-06
-2.25719e-06
-4.15856e-06
-3.1216e-06
-2.92563e-06
-3.96439e-06
-1.45926e-06
-4.44939e-06
-3.69123e-06
-7.93033e-07
1.46682e-06
-1.67046e-06
2.24748e-06
-2.50116e-06
2.69457e-06
-3.27558e-06
2.97617e-06
-3.98219e-06
3.09087e-06
-4.60493e-06
3.04214e-06
-5.12843e-06
2.84397e-06
-5.54064e-06
2.51712e-06
-5.83431e-06
2.08529e-06
-6.00738e-06
1.57151e-06
-6.06221e-06
9.94402e-07
-6.00463e-06
3.64117e-07
-5.84677e-06
-3.13692e-07
-5.58279e-06
-1.04172e-06
-5.19532e-06
-1.85994e-06
-4.64617e-06
-2.80633e-06
-3.87849e-06
-3.88929e-06
-2.82682e-06
-5.01606e-06
-1.47377e-06
-5.80243e-06
-5.165e-06
-7.50587e-07
2.2174e-06
-1.57751e-06
3.07441e-06
-2.33879e-06
3.45585e-06
-3.01955e-06
3.65693e-06
-3.61186e-06
3.68318e-06
-4.10732e-06
3.5376e-06
-4.49918e-06
3.23583e-06
-4.78421e-06
2.80216e-06
-4.96398e-06
2.26506e-06
-5.04515e-06
1.65268e-06
-5.03914e-06
9.88388e-07
-4.96146e-06
2.86432e-07
-4.82801e-06
-4.47134e-07
-4.64004e-06
-1.22969e-06
-4.38175e-06
-2.11823e-06
-4.01114e-06
-3.17694e-06
-3.45537e-06
-4.44506e-06
-2.61087e-06
-5.86056e-06
-1.41241e-06
-7.00089e-06
-6.57741e-06
-6.20248e-07
2.83765e-06
-1.33873e-06
3.79289e-06
-1.99417e-06
4.11129e-06
-2.56503e-06
4.22778e-06
-3.04364e-06
4.16179e-06
-3.42489e-06
3.91886e-06
-3.70631e-06
3.51724e-06
-3.88906e-06
2.9849e-06
-3.97904e-06
2.35505e-06
-3.98791e-06
1.66155e-06
-3.93371e-06
9.34191e-07
-3.84077e-06
1.93487e-07
-3.73014e-06
-5.57758e-07
-3.61099e-06
-1.34884e-06
-3.47271e-06
-2.25651e-06
-3.27567e-06
-3.37398e-06
-2.93698e-06
-4.78375e-06
-2.31654e-06
-6.48099e-06
-1.30462e-06
-8.01282e-06
-7.88203e-06
-4.51461e-07
3.28911e-06
-1.03241e-06
4.37384e-06
-1.56479e-06
4.64367e-06
-2.02054e-06
4.68353e-06
-2.39156e-06
4.53281e-06
-2.67405e-06
4.20134e-06
-2.8672e-06
3.7104e-06
-2.97361e-06
3.09131e-06
-3.00024e-06
2.38168e-06
-2.96013e-06
1.62144e-06
-2.87404e-06
8.481e-07
-2.77239e-06
9.18333e-08
-2.67786e-06
-6.52291e-07
-2.60556e-06
-1.42114e-06
-2.55761e-06
-2.30445e-06
-2.50764e-06
-3.42395e-06
-2.37387e-06
-4.91752e-06
-1.97971e-06
-6.87516e-06
-1.17011e-06
-8.82242e-06
-9.05214e-06
-2.71505e-07
3.56062e-06
-7.02943e-07
4.80527e-06
-1.10733e-06
5.04806e-06
-1.44975e-06
5.02594e-06
-1.72198e-06
4.80504e-06
-1.92128e-06
4.40064e-06
-2.04799e-06
3.83711e-06
-2.10529e-06
3.1486e-06
-2.09972e-06
2.37611e-06
-2.04295e-06
1.56467e-06
-1.95281e-06
7.57956e-07
-1.85913e-06
-1.84183e-09
-1.77531e-06
-7.36108e-07
-1.72273e-06
-1.47372e-06
-1.72156e-06
-2.30563e-06
-1.77301e-06
-3.3725e-06
-1.81344e-06
-4.87709e-06
-1.63214e-06
-7.05646e-06
-1.02679e-06
-9.42776e-06
-1.00789e-05
-1.00454e-07
3.66107e-06
-3.75982e-07
5.0808e-06
-6.54142e-07
5.32622e-06
-8.87967e-07
5.25977e-06
-1.06946e-06
4.98654e-06
-1.19747e-06
4.52865e-06
-1.27417e-06
3.91382e-06
-1.30402e-06
3.17845e-06
-1.29325e-06
2.36534e-06
-1.2498e-06
1.52122e-06
-1.18612e-06
6.94273e-07
-1.11384e-06
-7.41223e-08
-1.0564e-06
-7.93539e-07
-1.01277e-06
-1.51735e-06
-1.02235e-06
-2.29605e-06
-1.1227e-06
-3.27215e-06
-1.2929e-06
-4.70688e-06
-1.29834e-06
-7.05102e-06
-8.8749e-07
-9.83862e-06
-1.09664e-05
4.91737e-08
3.6119e-06
-7.13387e-08
5.20132e-06
-2.24651e-07
5.47953e-06
-3.54674e-07
5.38979e-06
-4.50268e-07
5.08213e-06
-5.12132e-07
4.59051e-06
-5.45028e-07
3.94671e-06
-5.55821e-07
3.18924e-06
-5.52547e-07
2.36207e-06
-5.42824e-07
1.5115e-06
-5.29495e-07
6.80944e-07
-5.05299e-07
-9.83183e-08
-4.76483e-07
-8.22356e-07
-4.5159e-07
-1.54225e-06
-4.71439e-07
-2.2762e-06
-5.81073e-07
-3.16251e-06
-8.34217e-07
-4.45374e-06
-9.94593e-07
-6.89065e-06
-7.59674e-07
-1.00735e-05
-1.17261e-05
1.70649e-07
3.44125e-06
2.00049e-07
5.17192e-06
1.67693e-07
5.51189e-06
1.37914e-07
5.41957e-06
1.26933e-07
5.09311e-06
1.32661e-07
4.58478e-06
1.47399e-07
3.93198e-06
1.61366e-07
3.17528e-06
1.64679e-07
2.35875e-06
1.49499e-07
1.52668e-06
1.15973e-07
7.1447e-07
8.19755e-08
-6.43206e-08
6.27039e-08
-8.03084e-07
3.29398e-08
-1.51248e-06
-5.81941e-09
-2.23744e-06
-1.53647e-07
-3.01469e-06
-4.40393e-07
-4.16699e-06
-7.25058e-07
-6.60598e-06
-6.44577e-07
-1.0154e-05
-1.23707e-05
2.68277e-07
3.17297e-06
4.26255e-07
5.01394e-06
5.10458e-07
5.42769e-06
5.81971e-07
5.34806e-06
6.59098e-07
5.01599e-06
7.37872e-07
4.50601e-06
8.07199e-07
3.86265e-06
8.54754e-07
3.12772e-06
8.70003e-07
2.3435e-06
8.46937e-07
1.54975e-06
7.86749e-07
7.74658e-07
7.00046e-07
2.23818e-08
6.09778e-07
-7.12815e-07
5.08619e-07
-1.41132e-06
3.80066e-07
-2.10889e-06
2.00075e-07
-2.8347e-06
-8.78555e-08
-3.87906e-06
-4.82024e-07
-6.21181e-06
-5.38827e-07
-1.00972e-05
-1.29095e-05
3.38828e-07
2.83415e-06
6.01886e-07
4.75088e-06
7.93277e-07
5.23629e-06
9.64578e-07
5.17676e-06
1.132e-06
4.84856e-06
1.28877e-06
4.34925e-06
1.42048e-06
3.73094e-06
1.51261e-06
3.03559e-06
1.55436e-06
2.30176e-06
1.54134e-06
1.56277e-06
1.47572e-06
8.40282e-07
1.35826e-06
1.39836e-07
1.19704e-06
-5.5159e-07
1.00449e-06
-1.21877e-06
7.77623e-07
-1.88203e-06
5.16318e-07
-2.57339e-06
1.93984e-07
-3.55673e-06
-2.55575e-07
-5.76225e-06
-4.3793e-07
-9.91486e-06
-1.33474e-05
3.75104e-07
2.45904e-06
7.15433e-07
4.41055e-06
1.00415e-06
4.94758e-06
1.27589e-06
4.90501e-06
1.53834e-06
4.58611e-06
1.7795e-06
4.10809e-06
1.98139e-06
3.52905e-06
2.12758e-06
2.8894e-06
2.20666e-06
2.22267e-06
2.21355e-06
1.55588e-06
2.14756e-06
9.06268e-07
2.00756e-06
2.79832e-07
1.7953e-06
-3.39328e-07
1.52484e-06
-9.48315e-07
1.20069e-06
-1.55788e-06
8.31264e-07
-2.20396e-06
4.31144e-07
-3.15661e-06
-5.95154e-08
-5.2716e-06
-3.25357e-07
-9.64902e-06
-1.36728e-05
3.62408e-07
2.09663e-06
7.48164e-07
4.0248e-06
1.1265e-06
4.56924e-06
1.50355e-06
4.52796e-06
1.8697e-06
4.21997e-06
2.20409e-06
3.7737e-06
2.48477e-06
3.24837e-06
2.69386e-06
2.68031e-06
2.81952e-06
2.09701e-06
2.85594e-06
1.51947e-06
2.8006e-06
9.61602e-07
2.65027e-06
4.3017e-07
2.40064e-06
-8.97008e-08
2.06911e-06
-6.16788e-07
1.65906e-06
-1.14783e-06
1.18456e-06
-1.72946e-06
6.83975e-07
-2.65602e-06
2.05775e-07
-4.7934e-06
-1.23912e-07
-9.31933e-06
-1.37967e-05
2.66651e-07
1.82998e-06
6.74147e-07
3.6173e-06
1.14192e-06
4.10147e-06
1.63684e-06
4.03304e-06
2.12042e-06
3.73639e-06
2.55944e-06
3.33468e-06
2.92824e-06
2.87956e-06
3.20853e-06
2.40002e-06
3.38895e-06
1.91659e-06
3.46393e-06
1.44449e-06
3.4315e-06
9.94029e-07
3.29065e-06
5.71023e-07
3.03194e-06
1.6901e-07
2.65544e-06
-2.40283e-07
2.17589e-06
-6.68278e-07
1.6086e-06
-1.16218e-06
1.02271e-06
-2.07013e-06
5.6363e-07
-4.33431e-06
1.54883e-07
-8.91058e-06
-1.36418e-05
3.52561e-08
1.79473e-06
4.58895e-07
3.19366e-06
1.03617e-06
3.5242e-06
1.67426e-06
3.39495e-06
2.29353e-06
3.11711e-06
2.84951e-06
2.7787e-06
3.31541e-06
2.41367e-06
3.67446e-06
2.04098e-06
3.9172e-06
1.67384e-06
4.03971e-06
1.32198e-06
4.04157e-06
9.92175e-07
3.92412e-06
6.88467e-07
3.68289e-06
4.10242e-07
3.30402e-06
1.3859e-07
2.79437e-06
-1.58635e-07
2.18669e-06
-5.54495e-07
1.59262e-06
-1.47606e-06
1.14191e-06
-3.8836e-06
5.44842e-07
-8.31352e-06
-1.3097e-05
-4.3326e-07
2.22799e-06
5.67338e-08
2.70367e-06
8.27798e-07
2.75313e-06
1.64987e-06
2.57288e-06
2.42595e-06
2.34103e-06
3.11195e-06
2.09271e-06
3.68585e-06
1.83977e-06
4.13543e-06
1.59139e-06
4.45546e-06
1.35381e-06
4.64578e-06
1.13167e-06
4.70947e-06
9.28483e-07
4.65141e-06
7.46522e-07
4.47544e-06
5.86218e-07
4.17116e-06
4.4287e-07
3.73658e-06
2.75948e-07
3.28769e-06
-1.05606e-07
2.88896e-06
-1.07733e-06
2.36727e-06
-3.36191e-06
1.31827e-06
-7.26452e-06
-1.17787e-05
-9.40163e-07
3.16815e-06
-2.34453e-07
1.99796e-06
8.89248e-07
1.62943e-06
1.97116e-06
1.49096e-06
2.94804e-06
1.36415e-06
3.80932e-06
1.23143e-06
4.54444e-06
1.10465e-06
5.14922e-06
9.86613e-07
5.62586e-06
8.77167e-07
5.98081e-06
7.76717e-07
6.22342e-06
6.85877e-07
6.36539e-06
6.04551e-07
6.42165e-06
5.2995e-07
6.41791e-06
4.46616e-07
6.4021e-06
2.91752e-07
6.36263e-06
-6.61308e-08
6.28356e-06
-9.98265e-07
5.4539e-06
-2.53225e-06
3.23878e-06
-5.0494e-06
-8.53992e-06
3.16815e-06
5.16611e-06
6.79554e-06
8.2865e-06
9.65065e-06
1.08821e-05
1.19867e-05
1.29733e-05
1.38505e-05
1.46272e-05
1.53131e-05
1.59176e-05
1.64476e-05
1.68942e-05
1.7186e-05
1.71198e-05
1.61216e-05
1.35893e-05
8.53992e-06
)
;

boundaryField
{
    movingWall
    {
        type            calculated;
        value           uniform 0;
    }
    fixedWalls
    {
        type            calculated;
        value           uniform 0;
    }
    frontAndBack
    {
        type            empty;
        value           nonuniform List<scalar> 0();
    }
}


// ************************************************************************* //
