/*--------------------------------*- C++ -*----------------------------------*\
  =========                 |
  \\      /  F ield         | OpenFOAM: The Open Source CFD Toolbox
   \\    /   O peration     | Website:  https://openfoam.org
    \\  /    A nd           | Version:  8
     \\/     M anipulation  |
\*---------------------------------------------------------------------------*/
FoamFile
{
    version     2.0;
    format      ascii;
    class       volVectorField;
    location    "5.5";
    object      U;
}
// * * * * * * * * * * * * * * * * * * * * * * * * * * * * * * * * * * * * * //

dimensions      [0 1 -1 0 0 0 0];

internalField   nonuniform List<vector> 
400
(
(0.00300474 -0.00390596 0)
(0.00608191 -0.00360958 0)
(0.00398699 -0.00107065 0)
(-0.00501451 0.00318347 0)
(-0.017862 0.00602604 0)
(-0.0333595 0.00778565 0)
(-0.0498367 0.00866295 0)
(-0.0661992 0.00884513 0)
(-0.0815453 0.00849437 0)
(-0.0951299 0.00772719 0)
(-0.106319 0.00661235 0)
(-0.114511 0.00515684 0)
(-0.119065 0.00328753 0)
(-0.119329 0.000837763 0)
(-0.114319 -0.00246395 0)
(-0.102977 -0.00638968 0)
(-0.0848831 -0.0106114 0)
(-0.0606439 -0.0142901 0)
(-0.0328737 -0.0150343 0)
(-0.00758623 -0.0071093 0)
(-0.000642865 -0.00569569 0)
(-0.00985101 0.00356483 0)
(-0.0230315 0.0130354 0)
(-0.0388593 0.0194276 0)
(-0.0561384 0.0232595 0)
(-0.0738822 0.0250907 0)
(-0.0911364 0.0252118 0)
(-0.107068 0.0238812 0)
(-0.120938 0.021328 0)
(-0.132123 0.0177451 0)
(-0.140101 0.0132731 0)
(-0.144388 0.0079645 0)
(-0.14446 0.0017316 0)
(-0.139796 -0.00566724 0)
(-0.130492 -0.0140316 0)
(-0.116176 -0.0232885 0)
(-0.0963642 -0.0330282 0)
(-0.0712065 -0.0416668 0)
(-0.0424698 -0.0445664 0)
(-0.0137479 -0.0303869 0)
(-0.00604231 0.00637516 0)
(-0.0214885 0.0194138 0)
(-0.0378604 0.0291818 0)
(-0.0547513 0.0360109 0)
(-0.0714554 0.0399665 0)
(-0.0873646 0.0412529 0)
(-0.101877 0.0401265 0)
(-0.11445 0.0368927 0)
(-0.124621 0.0318654 0)
(-0.132047 0.0253325 0)
(-0.136505 0.0175196 0)
(-0.13787 0.0085458 0)
(-0.135997 -0.00160998 0)
(-0.130873 -0.0129472 0)
(-0.122475 -0.0254239 0)
(-0.110205 -0.0392795 0)
(-0.093285 -0.054198 0)
(-0.0711754 -0.0681824 0)
(-0.0447561 -0.0750813 0)
(-0.0159908 -0.0592962 0)
(-0.00765072 0.0215901 0)
(-0.024983 0.0364043 0)
(-0.0419431 0.045831 0)
(-0.0580933 0.0520827 0)
(-0.0730355 0.0551261 0)
(-0.0864571 0.0550415 0)
(-0.0980189 0.0520855 0)
(-0.107432 0.0466316 0)
(-0.114498 0.0390992 0)
(-0.119132 0.029892 0)
(-0.12138 0.0193378 0)
(-0.121351 0.00763644 0)
(-0.119037 -0.00514696 0)
(-0.114826 -0.0189877 0)
(-0.108378 -0.0344162 0)
(-0.0990679 -0.051976 0)
(-0.0858582 -0.0715783 0)
(-0.0675186 -0.091195 0)
(-0.0442655 -0.103591 0)
(-0.0160706 -0.0891849 0)
(-0.00703162 0.0369977 0)
(-0.0237205 0.0533765 0)
(-0.0395941 0.0617311 0)
(-0.0540907 0.0666343 0)
(-0.066895 0.0681032 0)
(-0.0778398 0.0661904 0)
(-0.0867528 0.0611874 0)
(-0.0935214 0.0535436 0)
(-0.0981226 0.0437789 0)
(-0.100651 0.0324016 0)
(-0.101328 0.0198294 0)
(-0.100435 0.00632935 0)
(-0.0981135 -0.00802501 0)
(-0.0949904 -0.0234296 0)
(-0.0906402 -0.0407901 0)
(-0.0845056 -0.0611163 0)
(-0.0753441 -0.0848129 0)
(-0.0611778 -0.110226 0)
(-0.0419729 -0.129268 0)
(-0.0149492 -0.118292 0)
(-0.00534402 0.0507974 0)
(-0.0199936 0.0689145 0)
(-0.0338223 0.0759539 0)
(-0.0461677 0.0791725 0)
(-0.0567118 0.0787992 0)
(-0.0653445 0.0749166 0)
(-0.0719766 0.0678649 0)
(-0.0765852 0.0581694 0)
(-0.0792344 0.0464474 0)
(-0.0801071 0.0333159 0)
(-0.0795284 0.0193016 0)
(-0.0779184 0.00475649 0)
(-0.0756561 -0.0102651 0)
(-0.0735173 -0.0262296 0)
(-0.071067 -0.0444764 0)
(-0.0679302 -0.0665625 0)
(-0.0628622 -0.0936216 0)
(-0.0529715 -0.124828 0)
(-0.0385845 -0.151406 0)
(-0.0131541 -0.145534 0)
(-0.00325468 0.0617152 0)
(-0.0151406 0.0820551 0)
(-0.0264437 0.0879181 0)
(-0.0364212 0.0894747 0)
(-0.0447309 0.0872909 0)
(-0.0512851 0.0815184 0)
(-0.0560301 0.0725558 0)
(-0.0589774 0.0610023 0)
(-0.0602151 0.0475734 0)
(-0.0599414 0.0330134 0)
(-0.0585041 0.0179939 0)
(-0.0564074 0.00297334 0)
(-0.054266 -0.012039 0)
(-0.0527744 -0.0277649 0)
(-0.0516612 -0.0459169 0)
(-0.0508758 -0.0686508 0)
(-0.0496228 -0.0980833 0)
(-0.0437231 -0.134821 0)
(-0.0347014 -0.169559 0)
(-0.0110083 -0.170246 0)
(-0.00113059 0.0691187 0)
(-0.00990805 0.0923118 0)
(-0.0185044 0.0973633 0)
(-0.0260824 0.0974936 0)
(-0.0322684 0.0937266 0)
(-0.0369956 0.086309 0)
(-0.0402356 0.0757002 0)
(-0.0420197 0.0625622 0)
(-0.0424368 0.0476926 0)
(-0.0416617 0.0319525 0)
(-0.0399951 0.0161592 0)
(-0.0379054 0.000896144 0)
(-0.0360598 -0.0137089 0)
(-0.0348138 -0.0287518 0)
(-0.0343114 -0.0460197 0)
(-0.0347921 -0.068211 0)
(-0.0367737 -0.0986736 0)
(-0.0341937 -0.140354 0)
(-0.0308032 -0.183583 0)
(-0.00870841 -0.192124 0)
(0.000759009 0.0728698 0)
(-0.00475916 0.0995328 0)
(-0.0106013 0.104247 0)
(-0.0158484 0.103288 0)
(-0.0200378 0.098274 0)
(-0.0231391 0.0895701 0)
(-0.025159 0.0776971 0)
(-0.0261618 0.0633652 0)
(-0.0262476 0.0474257 0)
(-0.0255674 0.0308184 0)
(-0.0243184 0.0144728 0)
(-0.0226096 -0.000917055 0)
(-0.0215586 -0.0152458 0)
(-0.0204669 -0.029763 0)
(-0.0201927 -0.0458058 0)
(-0.0207428 -0.0664107 0)
(-0.0252035 -0.0962288 0)
(-0.0249849 -0.14188 0)
(-0.0272383 -0.1936 0)
(-0.00637713 -0.211159 0)
(0.00218108 0.0733101 0)
(-2.49268e-05 0.103588 0)
(-0.00310583 0.108658 0)
(-0.0061189 0.106975 0)
(-0.00840639 0.101082 0)
(-0.00998181 0.0915021 0)
(-0.0108953 0.0788193 0)
(-0.0112651 0.0637754 0)
(-0.0112298 0.0472333 0)
(-0.0109455 0.0301294 0)
(-0.0105827 0.0134266 0)
(-0.0101289 -0.00203476 0)
(-0.00969819 -0.016405 0)
(-0.00898703 -0.0307364 0)
(-0.00923537 -0.0457413 0)
(-0.00916828 -0.064237 0)
(-0.0153891 -0.0917933 0)
(-0.0164596 -0.14005 0)
(-0.0241939 -0.199923 0)
(-0.00407119 -0.227535 0)
(0.00317695 0.0711464 0)
(0.00400744 0.10446 0)
(0.00365281 0.110556 0)
(0.00283674 0.10865 0)
(0.00241132 0.102246 0)
(0.00237443 0.0921714 0)
(0.0026242 0.0791052 0)
(0.00297651 0.063838 0)
(0.00324106 0.0472542 0)
(0.00324849 0.0302669 0)
(0.00290233 0.013671 0)
(0.00199005 -0.0020484 0)
(0.00149908 -0.0166999 0)
(0.00128857 -0.0309199 0)
(-0.000148527 -0.0453757 0)
(9.46944e-05 -0.0618285 0)
(-0.00739015 -0.0863256 0)
(-0.00870548 -0.135523 0)
(-0.0216801 -0.202942 0)
(-0.00177478 -0.241513 0)
(0.00385518 0.0667018 0)
(0.00730707 0.102528 0)
(0.0094301 0.110012 0)
(0.0107749 0.108218 0)
(0.0122253 0.101573 0)
(0.0138004 0.0913268 0)
(0.015336 0.0782891 0)
(0.0165839 0.0632863 0)
(0.0173105 0.0471912 0)
(0.0173435 0.0308543 0)
(0.0166752 0.014908 0)
(0.0150881 -0.000595282 0)
(0.0133391 -0.0154369 0)
(0.0115132 -0.0296089 0)
(0.00870396 -0.0438383 0)
(0.00763945 -0.0586541 0)
(-0.000991386 -0.0802011 0)
(-0.00156607 -0.12872 0)
(-0.0195467 -0.203026 0)
(0.000593253 -0.253351 0)
(0.00422086 0.0605055 0)
(0.00980065 0.0982085 0)
(0.0140703 0.107213 0)
(0.017497 0.105786 0)
(0.0208469 0.0991397 0)
(0.024116 0.0889976 0)
(0.0270658 0.076323 0)
(0.0293877 0.0619577 0)
(0.0308164 0.0467172 0)
(0.0311812 0.031336 0)
(0.0304652 0.0163003 0)
(0.028858 0.00161109 0)
(0.0258626 -0.0127277 0)
(0.0223803 -0.0265267 0)
(0.0179001 -0.0402432 0)
(0.0145365 -0.054463 0)
(0.00423459 -0.0745001 0)
(0.0050887 -0.119735 0)
(-0.0175592 -0.200624 0)
(0.00318986 -0.263214 0)
(0.0041895 0.0531838 0)
(0.0112958 0.0920109 0)
(0.0173302 0.10235 0)
(0.0227573 0.101365 0)
(0.028072 0.0948825 0)
(0.0331507 0.0850736 0)
(0.0376578 0.0730499 0)
(0.0412264 0.0596428 0)
(0.0435647 0.0455789 0)
(0.0444953 0.0314613 0)
(0.0439691 0.0176694 0)
(0.0421666 0.00427549 0)
(0.0384432 -0.00891949 0)
(0.0336493 -0.0217925 0)
(0.0275795 -0.0346306 0)
(0.0217663 -0.0480907 0)
(0.00908985 -0.0674542 0)
(0.0111663 -0.109936 0)
(-0.0153868 -0.19633 0)
(0.00638129 -0.271013 0)
(0.00354742 0.0455353 0)
(0.0114337 0.0845149 0)
(0.0188498 0.0956148 0)
(0.0262606 0.0949051 0)
(0.0336901 0.0886615 0)
(0.0407607 0.0793896 0)
(0.0470024 0.0682919 0)
(0.0519943 0.0561517 0)
(0.0554282 0.0435857 0)
(0.0571212 0.0310748 0)
(0.0569984 0.0189288 0)
(0.0551857 0.00726543 0)
(0.0510254 -0.00430194 0)
(0.0452519 -0.0157072 0)
(0.0378252 -0.0271822 0)
(0.0296637 -0.0395303 0)
(0.0149748 -0.058357 0)
(0.0166057 -0.100564 0)
(-0.012328 -0.190238 0)
(0.010941 -0.276297 0)
(0.00173997 0.0387778 0)
(0.00954227 0.0763541 0)
(0.0181664 0.0871324 0)
(0.027721 0.0862634 0)
(0.0375425 0.0802639 0)
(0.0468643 0.0717455 0)
(0.0550514 0.0618715 0)
(0.0616443 0.0513196 0)
(0.06634 0.0405789 0)
(0.0689673 0.0300136 0)
(0.0694531 0.0198676 0)
(0.0678405 0.0102707 0)
(0.0639895 0.000996985 0)
(0.0575045 -0.00847028 0)
(0.0489986 -0.0181717 0)
(0.0387146 -0.0290846 0)
(0.022813 -0.047483 0)
(0.0228287 -0.0918299 0)
(-0.00685557 -0.184085 0)
(0.0177821 -0.27834 0)
(-0.00233269 0.0344653 0)
(0.00428278 0.0684492 0)
(0.0148568 0.0769194 0)
(0.0270179 0.0751465 0)
(0.0396565 0.0693801 0)
(0.0515393 0.0618795 0)
(0.0618864 0.0535633 0)
(0.070244 0.0449317 0)
(0.0763501 0.0363281 0)
(0.0800726 0.0280029 0)
(0.0813695 0.0201269 0)
(0.0802637 0.012799 0)
(0.0768545 0.00596336 0)
(0.0706531 -0.000968956 0)
(0.0616344 -0.00861912 0)
(0.049951 -0.0176411 0)
(0.0344058 -0.0357133 0)
(0.0333089 -0.0838519 0)
(0.00349957 -0.176744 0)
(0.0282344 -0.274586 0)
(-0.00868331 0.0397276 0)
(-0.00626044 0.0596781 0)
(0.00895251 0.064484 0)
(0.0247053 0.0612902 0)
(0.040753 0.0559995 0)
(0.055535 0.0499425 0)
(0.0682759 0.0436189 0)
(0.0786178 0.037301 0)
(0.0863935 0.0311757 0)
(0.0915532 0.0253849 0)
(0.0941288 0.0200329 0)
(0.0942034 0.0151877 0)
(0.0918798 0.0108686 0)
(0.0872119 0.00697554 0)
(0.0797393 0.00308971 0)
(0.0684829 -0.00274757 0)
(0.0578962 -0.0237533 0)
(0.0572037 -0.0756268 0)
(0.0259999 -0.161499 0)
(0.0462434 -0.254497 0)
(-0.0149984 0.0560639 0)
(-0.0170281 0.0450397 0)
(0.00706271 0.0413368 0)
(0.0287242 0.0390711 0)
(0.0492119 0.0360007 0)
(0.0677615 0.0324592 0)
(0.0838647 0.0288647 0)
(0.0973551 0.0253951 0)
(0.108225 0.0221222 0)
(0.116566 0.0190968 0)
(0.122542 0.0163593 0)
(0.126366 0.0139268 0)
(0.128307 0.0117596 0)
(0.128727 0.00957929 0)
(0.12789 0.0060001 0)
(0.123492 -0.00384467 0)
(0.124651 -0.0260212 0)
(0.122111 -0.0650573 0)
(0.083348 -0.12607 0)
(0.0834498 -0.200034 0)
(0.0658492 0.056531 0)
(0.0808026 0.0406279 0)
(0.117814 0.0305472 0)
(0.151064 0.0253122 0)
(0.179918 0.0219886 0)
(0.205781 0.0194578 0)
(0.22912 0.0174037 0)
(0.250048 0.0156886 0)
(0.26869 0.0142247 0)
(0.285216 0.0129572 0)
(0.299816 0.0118512 0)
(0.312683 0.0108791 0)
(0.323962 0.0100001 0)
(0.33357 0.00907635 0)
(0.340918 0.00750259 0)
(0.344784 0.00350603 0)
(0.335964 -0.00440436 0)
(0.304886 -0.0192906 0)
(0.231197 -0.0491398 0)
(0.167724 -0.105209 0)
)
;

boundaryField
{
    movingWall
    {
        type            fixedValue;
        value           uniform (1 0 0);
    }
    fixedWalls
    {
        type            noSlip;
    }
    frontAndBack
    {
        type            empty;
    }
}


// ************************************************************************* //
