/*--------------------------------*- C++ -*----------------------------------*\
  =========                 |
  \\      /  F ield         | OpenFOAM: The Open Source CFD Toolbox
   \\    /   O peration     | Website:  https://openfoam.org
    \\  /    A nd           | Version:  8
     \\/     M anipulation  |
\*---------------------------------------------------------------------------*/
FoamFile
{
    version     2.0;
    format      ascii;
    class       volScalarField;
    location    "1";
    object      p;
}
// * * * * * * * * * * * * * * * * * * * * * * * * * * * * * * * * * * * * * //

dimensions      [0 2 -2 0 0 0 0];

internalField   nonuniform List<scalar> 
400
(
2.18954e-08
8.83925e-07
1.62751e-05
4.73152e-05
9.52804e-05
0.000162633
0.000252954
0.000371102
0.000523514
0.000718496
0.000966426
0.00127965
0.00167145
0.00215207
0.00271937
0.00334528
0.00396627
0.00448387
0.00479205
0.0048605
6.42795e-07
1.29356e-06
1.56441e-05
4.52944e-05
9.10701e-05
0.000155139
0.000240753
0.000352382
0.000496085
0.00067995
0.00091455
0.00121323
0.00159141
0.00206248
0.00262779
0.0032648
0.00391185
0.00446008
0.00478671
0.00487057
-2.94386e-05
-2.87805e-05
-1.62041e-05
1.02206e-05
5.09952e-05
0.000107931
0.000183753
0.000282283
0.000408925
0.00057135
0.000780363
0.00105088
0.00140237
0.00185582
0.00242246
0.00308633
0.00378825
0.00440931
0.00479454
0.00490734
-9.36998e-05
-9.42817e-05
-8.52091e-05
-6.44941e-05
-3.203e-05
1.34934e-05
7.41066e-05
0.000152779
0.000254008
0.000384722
0.000555556
0.000782535
0.00108887
0.00150445
0.00205561
0.00274071
0.00351205
0.00424625
0.00473947
0.00488851
-0.000192624
-0.000195347
-0.0001912
-0.000178354
-0.00015715
-0.000126918
-8.65523e-05
-3.43173e-05
3.2726e-05
0.000119707
0.000235521
0.000395186
0.000623085
0.000956191
0.00144059
0.00210235
0.00292724
0.00379597
0.00443841
0.00464338
-0.000323693
-0.000329162
-0.000331096
-0.000328005
-0.000320755
-0.000309506
-0.000294435
-0.000275664
-0.000252922
-0.000224778
-0.000186997
-0.000129329
-3.00293e-05
0.000151899
0.000482527
0.0010436
0.00187633
0.00287186
0.00367762
0.0039858
-0.000482551
-0.000491186
-0.000500119
-0.000508345
-0.000517378
-0.000528475
-0.00054356
-0.000565462
-0.000598098
-0.000646423
-0.000715057
-0.000803452
-0.000895732
-0.000944986
-0.000854666
-0.000479222
0.000296399
0.00138766
0.00234519
0.00281805
-0.000663744
-0.000675736
-0.000692193
-0.000712718
-0.000739623
-0.000775543
-0.000824651
-0.000893355
-0.000991327
-0.0011326
-0.0013347
-0.00161101
-0.00195284
-0.00230281
-0.00252474
-0.0024015
-0.0017429
-0.000596177
0.000480923
0.00117258
-0.000861174
-0.00087636
-0.000900218
-0.000933055
-0.000978116
-0.00103962
-0.00112432
-0.00124275
-0.00141125
-0.00165443
-0.00200492
-0.00249241
-0.00311541
-0.00380186
-0.00437062
-0.00453654
-0.00404293
-0.00288458
-0.0017411
-0.00079357
-0.00106856
-0.00108626
-0.00111646
-0.00116022
-0.00122183
-0.00130709
-0.0014253
-0.00159099
-0.00182684
-0.0021674
-0.00265955
-0.00334859
-0.00423978
-0.0052471
-0.00614742
-0.00660127
-0.00630595
-0.00518221
-0.00404001
-0.00282986
-0.00128005
-0.00129887
-0.0013331
-0.00138466
-0.00145889
-0.00156301
-0.00170832
-0.0019124
-0.00220255
-0.00262021
-0.00322203
-0.00406472
-0.00515954
-0.00641422
-0.00757794
-0.00827133
-0.00818907
-0.00714818
-0.00607742
-0.00462869
-0.00149091
-0.00150854
-0.00154298
-0.00159725
-0.00167784
-0.00179296
-0.00195511
-0.00218328
-0.00250652
-0.00296829
-0.00362724
-0.00454327
-0.00573034
-0.00710144
-0.00841028
-0.00924317
-0.00937781
-0.00846122
-0.00751725
-0.0058686
-0.00169852
-0.00171127
-0.00174027
-0.00179017
-0.00186883
-0.00198507
-0.00215155
-0.00238688
-0.00271874
-0.00318718
-0.00384309
-0.00473775
-0.00588739
-0.00721608
-0.00848571
-0.00929934
-0.00964749
-0.00884743
-0.00811882
-0.00626688
-0.00190367
-0.00190544
-0.0019211
-0.00195751
-0.00202458
-0.00213128
-0.00228956
-0.00251628
-0.00283527
-0.00327573
-0.00388086
-0.00468642
-0.00570186
-0.0068551
-0.00794123
-0.00861691
-0.00887289
-0.00815485
-0.0078915
-0.00563421
-0.00211259
-0.00209292
-0.00208388
-0.00209556
-0.00214066
-0.00222774
-0.00236722
-0.0025735
-0.00285977
-0.00325219
-0.00377988
-0.00446942
-0.0053185
-0.00625227
-0.0070821
-0.00752783
-0.0075935
-0.00675727
-0.00700772
-0.00390474
-0.00234224
-0.00228062
-0.00222918
-0.0022023
-0.00221517
-0.00227438
-0.00238756
-0.00256344
-0.00280983
-0.00314502
-0.0035926
-0.00416961
-0.00486671
-0.00561103
-0.00623525
-0.00650716
-0.00639621
-0.00534371
-0.0055293
-0.00105074
-0.00263572
-0.00248333
-0.00235768
-0.00227563
-0.0022476
-0.00227397
-0.00235761
-0.00250013
-0.00270511
-0.00298763
-0.00336676
-0.00385499
-0.00444113
-0.00505699
-0.00555069
-0.00571867
-0.00545166
-0.00408468
-0.00311367
0.00415499
-0.00310807
-0.00272465
-0.00246328
-0.00230981
-0.00223739
-0.00223205
-0.00228823
-0.00239925
-0.00256775
-0.00280829
-0.00313697
-0.00356629
-0.00408728
-0.00463601
-0.00506061
-0.00515223
-0.00468473
-0.00243256
0.0019978
0.0161073
-0.00434195
-0.00310034
-0.00264928
-0.00240072
-0.00226264
-0.00221402
-0.00223925
-0.00232492
-0.00246824
-0.00268081
-0.00298019
-0.00338302
-0.00388794
-0.00444837
-0.00497201
-0.00541474
-0.00437073
0.00110779
0.0129016
0.0383214
-0.00755313
-0.00240103
-0.00148782
-0.00156394
-0.0016067
-0.00163957
-0.00172797
-0.00186692
-0.00204924
-0.00228717
-0.00260234
-0.00301686
-0.00353386
-0.00408416
-0.0043644
-0.00333992
0.000587966
0.0104507
0.0291962
0.0615076
)
;

boundaryField
{
    movingWall
    {
        type            zeroGradient;
    }
    fixedWalls
    {
        type            zeroGradient;
    }
    frontAndBack
    {
        type            empty;
    }
}


// ************************************************************************* //
