/*--------------------------------*- C++ -*----------------------------------*\
  =========                 |
  \\      /  F ield         | OpenFOAM: The Open Source CFD Toolbox
   \\    /   O peration     | Website:  https://openfoam.org
    \\  /    A nd           | Version:  8
     \\/     M anipulation  |
\*---------------------------------------------------------------------------*/
FoamFile
{
    version     2.0;
    format      ascii;
    class       surfaceScalarField;
    location    "1";
    object      phi;
}
// * * * * * * * * * * * * * * * * * * * * * * * * * * * * * * * * * * * * * //

dimensions      [0 3 -1 0 0 0 0];

internalField   nonuniform List<scalar> 
760
(
-4.9744e-08
4.97419e-08
-1.29507e-07
7.97628e-08
-2.19217e-07
8.97098e-08
-3.14611e-07
9.5394e-08
-4.15982e-07
1.01371e-07
-5.24396e-07
1.08414e-07
-6.40699e-07
1.16302e-07
-7.65018e-07
1.2432e-07
-8.96196e-07
1.31178e-07
-1.031e-06
1.34808e-07
-1.16318e-06
1.32179e-07
-1.28243e-06
1.19246e-07
-1.37368e-06
9.12521e-08
-1.41715e-06
4.34654e-08
-1.38779e-06
-2.93607e-08
-1.25873e-06
-1.29056e-07
-1.01279e-06
-2.45944e-07
-6.60585e-07
-3.522e-07
-2.69181e-07
-3.91404e-07
-2.69181e-07
-9.25629e-08
1.42305e-07
-2.33951e-07
2.21151e-07
-3.87975e-07
2.43734e-07
-5.47904e-07
2.55323e-07
-7.13439e-07
2.66906e-07
-8.85086e-07
2.80061e-07
-1.06281e-06
2.94021e-07
-1.24539e-06
3.06908e-07
-1.42983e-06
3.15611e-07
-1.61045e-06
3.15428e-07
-1.77802e-06
2.99758e-07
-1.91882e-06
2.60037e-07
-2.01385e-06
1.86291e-07
-2.03971e-06
6.93209e-08
-1.96944e-06
-9.96327e-08
-1.77762e-06
-3.20872e-07
-1.44594e-06
-5.77629e-07
-9.761e-07
-8.22037e-07
-4.2623e-07
-9.41274e-07
-6.9541e-07
-1.08324e-07
2.50629e-07
-2.6936e-07
3.82188e-07
-4.43026e-07
4.17399e-07
-6.22188e-07
4.34486e-07
-8.06343e-07
4.51061e-07
-9.9586e-07
4.69579e-07
-1.19067e-06
4.88832e-07
-1.38968e-06
5.05922e-07
-1.59021e-06
5.16136e-07
-1.78723e-06
5.12448e-07
-1.97255e-06
4.85077e-07
-2.1339e-06
4.21385e-07
-2.25416e-06
3.06558e-07
-2.31121e-06
1.26365e-07
-2.27717e-06
-1.33674e-07
-2.11784e-06
-4.80198e-07
-1.79509e-06
-9.00378e-07
-1.28394e-06
-1.33319e-06
-6.18055e-07
-1.60715e-06
-1.31347e-06
-1.11444e-07
3.62073e-07
-2.7643e-07
5.47173e-07
-4.54127e-07
5.95097e-07
-6.37341e-07
6.177e-07
-8.25809e-07
6.39529e-07
-1.0204e-06
6.64171e-07
-1.2219e-06
6.90327e-07
-1.43053e-06
7.14555e-07
-1.64554e-06
7.31141e-07
-1.86448e-06
7.3139e-07
-2.08224e-06
7.02842e-07
-2.28958e-06
6.28726e-07
-2.47107e-06
4.8805e-07
-2.60181e-06
2.57096e-07
-2.64637e-06
-8.91048e-08
-2.55131e-06
-5.75265e-07
-2.24948e-06
-1.2022e-06
-1.68799e-06
-1.89469e-06
-8.78694e-07
-2.41645e-06
-2.19216e-06
-1.08824e-07
4.70897e-07
-2.71343e-07
7.09692e-07
-4.46848e-07
7.70602e-07
-6.28208e-07
7.9906e-07
-8.15642e-07
8.26963e-07
-1.01092e-06
8.59448e-07
-1.21625e-06
8.95658e-07
-1.43402e-06
9.32324e-07
-1.66649e-06
9.63618e-07
-1.91516e-06
9.80058e-07
-2.17915e-06
9.66832e-07
-2.45212e-06
9.01689e-07
-2.7172e-06
7.53132e-07
-2.94051e-06
4.8041e-07
-3.07122e-06
4.16041e-08
-3.02674e-06
-6.19745e-07
-2.71873e-06
-1.51021e-06
-2.08355e-06
-2.52987e-06
-1.12699e-06
-3.37301e-06
-3.31915e-06
-1.03303e-07
5.74201e-07
-2.60107e-07
8.66496e-07
-4.30143e-07
9.40637e-07
-6.06332e-07
9.7525e-07
-7.89423e-07
1.01005e-06
-9.82229e-07
1.05225e-06
-1.18867e-06
1.1021e-06
-1.41376e-06
1.15741e-06
-1.6635e-06
1.21336e-06
-1.94412e-06
1.26068e-06
-2.25917e-06
1.28188e-06
-2.60329e-06
1.24581e-06
-2.9531e-06
1.10294e-06
-3.25913e-06
7.86444e-07
-3.43986e-06
2.22334e-07
-3.40408e-06
-6.55527e-07
-3.06123e-06
-1.85306e-06
-2.35514e-06
-3.23596e-06
-1.29092e-06
-4.43723e-06
-4.61006e-06
-9.59995e-08
6.702e-07
-2.44943e-07
1.01544e-06
-4.07066e-07
1.10276e-06
-5.75187e-07
1.14337e-06
-7.50453e-07
1.18532e-06
-9.3661e-07
1.23841e-06
-1.13921e-06
1.3047e-06
-1.36581e-06
1.38401e-06
-1.62607e-06
1.47362e-06
-1.93029e-06
1.5649e-06
-2.28433e-06
1.63592e-06
-2.67962e-06
1.64111e-06
-3.08164e-06
1.50495e-06
-3.42452e-06
1.12933e-06
-3.6169e-06
4.14708e-07
-3.56675e-06
-7.05671e-07
-3.19934e-06
-2.22048e-06
-2.46788e-06
-3.96743e-06
-1.36628e-06
-5.53883e-06
-5.97634e-06
-8.75345e-08
7.57735e-07
-2.26972e-07
1.15488e-06
-3.78961e-07
1.25475e-06
-5.35944e-07
1.30035e-06
-6.99161e-07
1.34854e-06
-8.72898e-07
1.41215e-06
-1.06375e-06
1.49555e-06
-1.28098e-06
1.60124e-06
-1.53642e-06
1.72906e-06
-1.8421e-06
1.87058e-06
-2.20328e-06
1.99709e-06
-2.60697e-06
2.0448e-06
-3.01202e-06
1.91e-06
-3.34875e-06
1.46605e-06
-3.53021e-06
5.9617e-07
-3.47529e-06
-7.60585e-07
-3.12669e-06
-2.56908e-06
-2.43669e-06
-4.65743e-06
-1.37282e-06
-6.6027e-06
-7.34916e-06
-7.86057e-08
8.36341e-07
-2.07396e-07
1.28367e-06
-3.47249e-07
1.3946e-06
-4.89901e-07
1.443e-06
-6.36272e-07
1.49491e-06
-7.90558e-07
1.56644e-06
-9.594e-07
1.66439e-06
-1.15211e-06
1.79395e-06
-1.38035e-06
1.9573e-06
-1.65532e-06
2.14555e-06
-1.98091e-06
2.32268e-06
-2.34394e-06
2.40783e-06
-2.70691e-06
2.27298e-06
-3.00909e-06
1.76823e-06
-3.17651e-06
7.63594e-07
-3.14118e-06
-7.9592e-07
-2.86114e-06
-2.84911e-06
-2.27935e-06
-5.23922e-06
-1.32022e-06
-7.56183e-06
-8.66938e-06
-7.02826e-08
9.06623e-07
-1.88083e-07
1.40147e-06
-3.14277e-07
1.5208e-06
-4.39643e-07
1.56837e-06
-5.64392e-07
1.61966e-06
-6.91977e-07
1.69402e-06
-8.27949e-07
1.80036e-06
-9.79923e-07
1.94593e-06
-1.15713e-06
2.13451e-06
-1.36832e-06
2.35674e-06
-1.61712e-06
2.57149e-06
-1.89588e-06
2.68659e-06
-2.18019e-06
2.55729e-06
-2.42791e-06
2.01595e-06
-2.58317e-06
9.18854e-07
-2.58952e-06
-7.89572e-07
-2.42129e-06
-3.01734e-06
-2.00908e-06
-5.65143e-06
-1.21586e-06
-8.35505e-06
-9.88524e-06
-6.42223e-08
9.70846e-07
-1.71911e-07
1.50916e-06
-2.83734e-07
1.63262e-06
-3.89526e-07
1.67416e-06
-4.88637e-07
1.71877e-06
-5.83365e-07
1.78875e-06
-6.77407e-07
1.89441e-06
-7.75478e-07
2.044e-06
-8.82981e-07
2.24201e-06
-1.0053e-06
2.47906e-06
-1.1465e-06
2.71268e-06
-1.30729e-06
2.84738e-06
-1.48137e-06
2.73137e-06
-1.65265e-06
2.18723e-06
-1.79193e-06
1.05813e-06
-1.85098e-06
-7.30525e-07
-1.82906e-06
-3.03926e-06
-1.64252e-06
-5.83798e-06
-1.06777e-06
-8.9298e-06
-1.0953e-05
-6.29296e-08
1.03378e-06
-1.63049e-07
1.60928e-06
-2.60824e-07
1.7304e-06
-3.45686e-07
1.75902e-06
-4.16412e-07
1.78949e-06
-4.74221e-07
1.84656e-06
-5.20857e-07
1.94104e-06
-5.57939e-07
2.08108e-06
-5.86823e-07
2.2709e-06
-6.09342e-07
2.50158e-06
-6.29245e-07
2.73258e-06
-6.5389e-07
2.87203e-06
-6.9282e-07
2.7703e-06
-7.57617e-07
2.25203e-06
-8.60721e-07
1.16124e-06
-9.66254e-07
-6.24993e-07
-1.11863e-06
-2.88689e-06
-1.20408e-06
-5.75252e-06
-8.85215e-07
-9.24866e-06
-1.18382e-05
-7.02629e-08
1.10404e-06
-1.67296e-07
1.70631e-06
-2.52305e-07
1.8154e-06
-3.15694e-07
1.82241e-06
-3.56567e-07
1.83037e-06
-3.75679e-07
1.86567e-06
-3.73401e-07
1.93876e-06
-3.48998e-07
2.05668e-06
-3.00779e-07
2.22268e-06
-2.28205e-07
2.429e-06
-1.34402e-07
2.63878e-06
-3.03077e-08
2.76793e-06
6.14392e-08
2.67855e-06
1.1945e-07
2.19402e-06
1.12563e-07
1.16812e-06
-3.96835e-08
-4.72746e-07
-3.41607e-07
-2.58497e-06
-7.17877e-07
-5.37625e-06
-6.79269e-07
-9.28727e-06
-1.25175e-05
-9.19859e-08
1.19602e-06
-1.92614e-07
1.80694e-06
-2.66527e-07
1.88932e-06
-3.08049e-07
1.86394e-06
-3.1828e-07
1.8406e-06
-2.98559e-07
1.84595e-06
-2.48787e-07
1.88899e-06
-1.67005e-07
1.97489e-06
-4.97061e-08
2.10538e-06
1.06507e-07
2.27279e-06
2.96314e-07
2.44897e-06
5.10421e-07
2.55383e-06
7.27148e-07
2.46183e-06
9.04804e-07
2.01636e-06
9.81902e-07
1.09103e-06
8.10977e-07
-3.01822e-07
3.75833e-07
-2.14982e-06
-2.33471e-07
-4.76695e-06
-4.61351e-07
-9.05939e-06
-1.29788e-05
-1.37664e-07
1.33369e-06
-2.50243e-07
1.91952e-06
-3.13481e-07
1.95256e-06
-3.31458e-07
1.88191e-06
-3.09825e-07
1.81896e-06
-2.51672e-07
1.78779e-06
-1.57238e-07
1.79456e-06
-2.38183e-08
1.84147e-06
1.52773e-07
1.92879e-06
3.73786e-07
2.05178e-06
6.39498e-07
2.18326e-06
9.34224e-07
2.2591e-06
1.22447e-06
2.17158e-06
1.45059e-06
1.79024e-06
1.52442e-06
1.0172e-06
1.33319e-06
-1.10589e-07
8.38403e-07
-1.65504e-06
1.72797e-07
-4.10134e-06
-2.01854e-07
-8.68474e-06
-1.31807e-05
-2.24678e-07
1.55837e-06
-3.56361e-07
2.0512e-06
-4.03917e-07
2.00011e-06
-3.9267e-07
1.87067e-06
-3.35862e-07
1.76216e-06
-2.38978e-07
1.69091e-06
-1.02847e-07
1.65843e-06
7.63328e-08
1.66229e-06
3.018e-07
1.70332e-06
5.77231e-07
1.77634e-06
8.99006e-07
1.86149e-06
1.24823e-06
1.90988e-06
1.58195e-06
1.83786e-06
1.82606e-06
1.54613e-06
1.87671e-06
9.66552e-07
1.63832e-06
1.27795e-07
1.10155e-06
-1.11827e-06
5.43172e-07
-3.54296e-06
1.18299e-07
-8.25987e-06
-1.30624e-05
-3.83767e-07
1.94213e-06
-5.30945e-07
2.19838e-06
-5.40861e-07
2.01003e-06
-4.84591e-07
1.81439e-06
-3.83661e-07
1.66123e-06
-2.44365e-07
1.55161e-06
-6.73302e-08
1.48139e-06
1.52762e-07
1.4422e-06
4.20564e-07
1.43552e-06
7.38419e-07
1.45849e-06
1.10276e-06
1.49714e-06
1.49239e-06
1.52025e-06
1.85833e-06
1.47191e-06
2.11884e-06
1.28563e-06
2.16733e-06
9.18052e-07
1.8969e-06
3.98227e-07
1.40816e-06
-6.29528e-07
9.94669e-07
-3.12947e-06
4.68864e-07
-7.73406e-06
-1.25935e-05
-6.55744e-07
2.59788e-06
-7.58656e-07
2.30129e-06
-6.55802e-07
1.90717e-06
-5.07792e-07
1.66638e-06
-3.31914e-07
1.48535e-06
-1.27944e-07
1.34764e-06
1.05931e-07
1.24752e-06
3.7179e-07
1.17634e-06
6.75674e-07
1.13163e-06
1.02537e-06
1.10879e-06
1.4203e-06
1.10222e-06
1.84187e-06
1.09868e-06
2.24152e-06
1.07226e-06
2.53557e-06
9.91584e-07
2.61838e-06
8.3524e-07
2.49004e-06
5.26564e-07
2.3487e-06
-4.88185e-07
2.04679e-06
-2.82756e-06
1.17756e-06
-6.86483e-06
-1.1416e-05
-8.52276e-07
3.45015e-06
-5.82374e-07
2.03139e-06
-1.30129e-07
1.45493e-06
2.97276e-07
1.23898e-06
6.93117e-07
1.08951e-06
1.07454e-06
9.6622e-07
1.45078e-06
8.71276e-07
1.82836e-06
7.98766e-07
2.21716e-06
7.4283e-07
2.62655e-06
6.99403e-07
3.06274e-06
6.66034e-07
3.52203e-06
6.39391e-07
3.98198e-06
6.12308e-07
4.40513e-06
5.6843e-07
4.78638e-06
4.53994e-07
5.18572e-06
1.2722e-07
5.48113e-06
-7.83596e-07
5.01067e-06
-2.3571e-06
3.04407e-06
-4.89823e-06
-8.3719e-06
3.45015e-06
5.48154e-06
6.93647e-06
8.17545e-06
9.26496e-06
1.02312e-05
1.11025e-05
1.19012e-05
1.2644e-05
1.33435e-05
1.40095e-05
1.46489e-05
1.52612e-05
1.58296e-05
1.62836e-05
1.64108e-05
1.56272e-05
1.32701e-05
8.3719e-06
)
;

boundaryField
{
    movingWall
    {
        type            calculated;
        value           uniform 0;
    }
    fixedWalls
    {
        type            calculated;
        value           uniform 0;
    }
    frontAndBack
    {
        type            empty;
        value           nonuniform List<scalar> 0();
    }
}


// ************************************************************************* //
