/*--------------------------------*- C++ -*----------------------------------*\
  =========                 |
  \\      /  F ield         | OpenFOAM: The Open Source CFD Toolbox
   \\    /   O peration     | Website:  https://openfoam.org
    \\  /    A nd           | Version:  8
     \\/     M anipulation  |
\*---------------------------------------------------------------------------*/
FoamFile
{
    version     2.0;
    format      ascii;
    class       volVectorField;
    location    "1";
    object      U;
}
// * * * * * * * * * * * * * * * * * * * * * * * * * * * * * * * * * * * * * //

dimensions      [0 1 -1 0 0 0 0];

internalField   nonuniform List<vector> 
400
(
(-0.000345116 0.000311744 0)
(-0.00173411 0.000465298 0)
(-0.00346268 0.000531991 0)
(-0.00532336 0.000581054 0)
(-0.00729098 0.000638559 0)
(-0.00938806 0.000710065 0)
(-0.0116371 0.000795736 0)
(-0.0140502 0.000892398 0)
(-0.0166198 0.000992375 0)
(-0.0193056 0.00108126 0)
(-0.0220158 0.00113548 0)
(-0.0245845 0.00112095 0)
(-0.0267468 0.000993518 0)
(-0.028129 0.0006993 0)
(-0.0283139 0.000173764 0)
(-0.0267592 -0.00065079 0)
(-0.0229638 -0.00170447 0)
(-0.0168922 -0.00270357 0)
(-0.00930033 -0.00308048 0)
(-0.00217984 -0.00212227 0)
(-0.000616559 0.00182316 0)
(-0.00319525 0.00290049 0)
(-0.00618851 0.0032343 0)
(-0.00934326 0.00341382 0)
(-0.0126 0.00359673 0)
(-0.0159738 0.00380788 0)
(-0.0194742 0.00403748 0)
(-0.0230918 0.00425928 0)
(-0.0267879 0.0044286 0)
(-0.0304796 0.00447679 0)
(-0.0340213 0.00430654 0)
(-0.0371821 0.00379126 0)
(-0.0396234 0.00278303 0)
(-0.040896 0.00113326 0)
(-0.0404968 -0.00127382 0)
(-0.0378647 -0.00444832 0)
(-0.032588 -0.00810181 0)
(-0.0245356 -0.0114421 0)
(-0.0143505 -0.0127782 0)
(-0.00345225 -0.00885227 0)
(-0.000723087 0.00390311 0)
(-0.00371056 0.00599812 0)
(-0.00709281 0.00657442 0)
(-0.0106376 0.0068605 0)
(-0.0142728 0.00714101 0)
(-0.0180113 0.0074554 0)
(-0.0218609 0.00778289 0)
(-0.0258131 0.0080745 0)
(-0.0298334 0.00825072 0)
(-0.033849 0.00819324 0)
(-0.0377317 0.00773797 0)
(-0.041277 0.00667412 0)
(-0.044178 0.0047572 0)
(-0.046012 0.00174745 0)
(-0.0462877 -0.00251648 0)
(-0.0444202 -0.00807661 0)
(-0.0396404 -0.0146251 0)
(-0.0313738 -0.0210542 0)
(-0.0197978 -0.024536 0)
(-0.00565301 -0.0185721 0)
(-0.000737581 0.00612205 0)
(-0.00381254 0.00928446 0)
(-0.0072731 0.0101142 0)
(-0.0108979 0.0105097 0)
(-0.0146143 0.0108907 0)
(-0.0184429 0.0113158 0)
(-0.0224047 0.0117581 0)
(-0.0265124 0.012152 0)
(-0.0307637 0.0123906 0)
(-0.0351312 0.0123146 0)
(-0.0395465 0.0117017 0)
(-0.0438733 0.0102629 0)
(-0.0478619 0.0076534 0)
(-0.0510883 0.00350595 0)
(-0.0529203 -0.0025036 0)
(-0.052624 -0.0105913 0)
(-0.0488008 -0.0207021 0)
(-0.0402729 -0.0314977 0)
(-0.0268154 -0.0389202 0)
(-0.00911246 -0.0330849 0)
(-0.000705906 0.00833361 0)
(-0.00373253 0.012572 0)
(-0.00714689 0.0136595 0)
(-0.0107293 0.0141685 0)
(-0.0144126 0.0146618 0)
(-0.0182314 0.0152242 0)
(-0.0222291 0.0158318 0)
(-0.0264532 0.0164138 0)
(-0.030953 0.0168509 0)
(-0.035772 0.0169583 0)
(-0.0409288 0.0164652 0)
(-0.0463738 0.014995 0)
(-0.0518987 0.0120526 0)
(-0.0569983 0.00702742 0)
(-0.060727 -0.00075624 0)
(-0.061938 -0.0118309 0)
(-0.0585813 -0.0266414 0)
(-0.049116 -0.0434205 0)
(-0.0334234 -0.0567148 0)
(-0.0125061 -0.0535456 0)
(-0.000650192 0.0104602 0)
(-0.00356083 0.0157727 0)
(-0.00686513 0.0171231 0)
(-0.0103388 0.017753 0)
(-0.0139219 0.0183767 0)
(-0.0176647 0.019115 0)
(-0.0216368 0.0199588 0)
(-0.0259275 0.020849 0)
(-0.0306493 0.0216741 0)
(-0.0359336 0.0222436 0)
(-0.0419025 0.0222417 0)
(-0.0485847 0.0211611 0)
(-0.0557476 0.0182358 0)
(-0.0626748 0.0124267 0)
(-0.0680006 0.00252174 0)
(-0.0697201 -0.0126045 0)
(-0.0659713 -0.0333258 0)
(-0.0552488 -0.0572589 0)
(-0.0378986 -0.0775745 0)
(-0.0144145 -0.0785625 0)
(-0.00057959 0.012457 0)
(-0.00333242 0.0188361 0)
(-0.00648203 0.020452 0)
(-0.00979393 0.0212056 0)
(-0.0132131 0.0219726 0)
(-0.0168032 0.0229207 0)
(-0.0206574 0.0240696 0)
(-0.0249054 0.0253915 0)
(-0.0297215 0.0268065 0)
(-0.0353218 0.0281352 0)
(-0.0419136 0.0289966 0)
(-0.0495422 0.0286512 0)
(-0.0578411 0.0258749 0)
(-0.0658124 0.0190113 0)
(-0.0717633 0.00627132 0)
(-0.0733785 -0.0137058 0)
(-0.0689401 -0.0408853 0)
(-0.0575927 -0.0722407 0)
(-0.0400276 -0.0999148 0)
(-0.0147385 -0.105817 0)
(-0.000499847 0.0142949 0)
(-0.00306616 0.0217251 0)
(-0.00602377 0.0236009 0)
(-0.00912196 0.024468 0)
(-0.0123055 0.0253739 0)
(-0.0156444 0.0265431 0)
(-0.0192463 0.0280377 0)
(-0.0232668 0.0298784 0)
(-0.0279205 0.0320346 0)
(-0.0334732 0.0343368 0)
(-0.0401642 0.0362856 0)
(-0.0480008 0.0367909 0)
(-0.0564885 0.03405 0)
(-0.0645019 0.025789 0)
(-0.0703312 0.00983754 0)
(-0.0717118 -0.0151005 0)
(-0.0671006 -0.0485276 0)
(-0.0562771 -0.0869924 0)
(-0.0402689 -0.122096 0)
(-0.0139088 -0.13368 0)
(-0.000418036 0.0159569 0)
(-0.00278262 0.0244114 0)
(-0.00551804 0.0265271 0)
(-0.0083521 0.0274771 0)
(-0.0112223 0.0284894 0)
(-0.014195 0.0298527 0)
(-0.0173768 0.0316787 0)
(-0.0209242 0.0340443 0)
(-0.0250519 0.0369704 0)
(-0.0300217 0.0402822 0)
(-0.0360598 0.0433226 0)
(-0.0431589 0.0446203 0)
(-0.0508418 0.0418253 0)
(-0.0581 0.0321504 0)
(-0.0634451 0.0131632 0)
(-0.064821 -0.0162811 0)
(-0.0608242 -0.055208 0)
(-0.0516307 -0.100142 0)
(-0.039009 -0.142734 0)
(-0.0121985 -0.160951 0)
(-0.00034511 0.0174426 0)
(-0.00251318 0.0268789 0)
(-0.00500824 0.0291944 0)
(-0.0075351 0.0301702 0)
(-0.0100171 0.0312211 0)
(-0.0125075 0.0327026 0)
(-0.0150952 0.0347737 0)
(-0.0179092 0.0375616 0)
(-0.0211226 0.041128 0)
(-0.0249443 0.0452844 0)
(-0.0295699 0.0492358 0)
(-0.0350452 0.0512068 0)
(-0.0410756 0.0484208 0)
(-0.0469691 0.0376775 0)
(-0.0516159 0.0162999 0)
(-0.0532688 -0.0167396 0)
(-0.0505993 -0.0599642 0)
(-0.0439142 -0.110406 0)
(-0.0365063 -0.160569 0)
(-0.00974427 -0.186559 0)
(-0.000297995 0.0187784 0)
(-0.00230607 0.0291311 0)
(-0.00456125 0.0315792 0)
(-0.00675203 0.0324933 0)
(-0.00878456 0.0334787 0)
(-0.0106944 0.0349541 0)
(-0.0125418 0.0371149 0)
(-0.0144089 0.0401208 0)
(-0.0163993 0.0440577 0)
(-0.0186391 0.048732 0)
(-0.0212799 0.0532814 0)
(-0.0244575 0.055777 0)
(-0.028146 0.0531875 0)
(-0.0320923 0.0420081 0)
(-0.0357224 0.0192772 0)
(-0.0377403 -0.0161081 0)
(-0.0370422 -0.0620013 0)
(-0.033455 -0.116625 0)
(-0.0330185 -0.174442 0)
(-0.00667119 -0.209555 0)
(-0.000302489 0.020031 0)
(-0.00223239 0.0312005 0)
(-0.00427196 0.0336771 0)
(-0.00611602 0.0344094 0)
(-0.00765833 0.0351932 0)
(-0.00892104 0.0365018 0)
(-0.00993549 0.038551 0)
(-0.0107346 0.0415097 0)
(-0.0113483 0.0454696 0)
(-0.0118154 0.0502454 0)
(-0.0122266 0.0549885 0)
(-0.0127798 0.0577861 0)
(-0.0136683 0.0555654 0)
(-0.0150356 0.044722 0)
(-0.0170295 0.0219735 0)
(-0.0189565 -0.0142303 0)
(-0.0211304 -0.060779 0)
(-0.0207963 -0.117819 0)
(-0.0288198 -0.183363 0)
(-0.0031126 -0.229149 0)
(-0.000399456 0.0213291 0)
(-0.00239506 0.0331563 0)
(-0.00426751 0.0355048 0)
(-0.00576947 0.0359005 0)
(-0.00679946 0.0363226 0)
(-0.00738151 0.0372872 0)
(-0.00752962 0.0390116 0)
(-0.0072405 0.0416525 0)
(-0.00649015 0.0452901 0)
(-0.0052585 0.0497527 0)
(-0.00357759 0.054269 0)
(-0.00165262 0.0571285 0)
(0.000266909 0.0554504 0)
(0.00188847 0.0456302 0)
(0.0023381 0.0244474 0)
(0.00200634 -0.0109574 0)
(-0.00450496 -0.0557833 0)
(-0.00678626 -0.113023 0)
(-0.0241416 -0.18666 0)
(0.000819729 -0.244758 0)
(-0.000660377 0.0228955 0)
(-0.00294655 0.0351114 0)
(-0.00471308 0.0370957 0)
(-0.00587942 0.0369606 0)
(-0.00638091 0.0368472 0)
(-0.00627 0.0372935 0)
(-0.00556162 0.0384992 0)
(-0.00423707 0.040591 0)
(-0.00225283 0.0436121 0)
(0.000443365 0.0474265 0)
(0.0039375 0.0514274 0)
(0.0079888 0.0539154 0)
(0.0121859 0.0522457 0)
(0.0161071 0.0430994 0)
(0.0185059 0.0237459 0)
(0.0200954 -0.00656257 0)
(0.0103798 -0.045785 0)
(0.00713642 -0.101154 0)
(-0.0191814 -0.184455 0)
(0.00513536 -0.256082 0)
(-0.00121824 0.0251034 0)
(-0.00412155 0.0372232 0)
(-0.00582295 0.0384787 0)
(-0.00663016 0.0375747 0)
(-0.00656808 0.0367508 0)
(-0.00575201 0.0365266 0)
(-0.00421563 0.0370607 0)
(-0.00195536 0.0384295 0)
(0.00111717 0.0406619 0)
(0.00511514 0.0436483 0)
(0.0100139 0.0467993 0)
(0.0156364 0.0486831 0)
(0.021443 0.0469481 0)
(0.0267071 0.0387017 0)
(0.0297928 0.0216321 0)
(0.0308037 -0.00419606 0)
(0.0201651 -0.0373349 0)
(0.0176622 -0.0869279 0)
(-0.0140807 -0.177883 0)
(0.0102528 -0.263144 0)
(-0.00233657 0.0285997 0)
(-0.00629866 0.0396725 0)
(-0.00786566 0.0396264 0)
(-0.00819049 0.0376793 0)
(-0.00746904 0.0359928 0)
(-0.00590852 0.0349909 0)
(-0.0035725 0.0347579 0)
(-0.000470684 0.0352982 0)
(0.00359484 0.0366307 0)
(0.00862183 0.0386347 0)
(0.0146191 0.0408398 0)
(0.0213712 0.0421027 0)
(0.0282466 0.0404953 0)
(0.0342384 0.0337066 0)
(0.037466 0.0200754 0)
(0.0371876 0.000174112 0)
(0.0256692 -0.0274959 0)
(0.0235537 -0.0760398 0)
(-0.00826682 -0.170295 0)
(0.0171149 -0.266128 0)
(-0.0045182 0.0345224 0)
(-0.0100744 0.0425402 0)
(-0.0110619 0.0403271 0)
(-0.0105056 0.0370936 0)
(-0.00887515 0.0344739 0)
(-0.00644473 0.0326693 0)
(-0.00329198 0.0316546 0)
(0.000636088 0.0313196 0)
(0.00555549 0.031671 0)
(0.0114102 0.0326429 0)
(0.0182587 0.033888 0)
(0.0258611 0.034596 0)
(0.0335234 0.0333555 0)
(0.0400545 0.0284997 0)
(0.0435366 0.0189088 0)
(0.0422804 0.00494413 0)
(0.030521 -0.0174399 0)
(0.0302683 -0.0676696 0)
(0.000771911 -0.164195 0)
(0.0272341 -0.263648 0)
(-0.00859839 0.0458936 0)
(-0.0158888 0.045972 0)
(-0.0145503 0.0407158 0)
(-0.0118603 0.0361091 0)
(-0.00855314 0.0325299 0)
(-0.00474635 0.0299066 0)
(-0.000408079 0.0280876 0)
(0.00465733 0.0268809 0)
(0.0103219 0.0262951 0)
(0.0168452 0.026235 0)
(0.0243052 0.026521 0)
(0.0325245 0.0267187 0)
(0.0408518 0.0260167 0)
(0.048042 0.0234851 0)
(0.0522451 0.0187761 0)
(0.0511447 0.0126936 0)
(0.0436713 -0.00656312 0)
(0.048936 -0.062231 0)
(0.0211944 -0.152178 0)
(0.0445947 -0.246167 0)
(-0.0116293 0.0626084 0)
(-0.0178675 0.0413885 0)
(-0.00734586 0.0302963 0)
(0.00177637 0.0264581 0)
(0.00994955 0.0236658 0)
(0.0176622 0.0212928 0)
(0.025228 0.019503 0)
(0.0327787 0.0181994 0)
(0.0404223 0.0172766 0)
(0.0483751 0.0166505 0)
(0.0568024 0.0162687 0)
(0.0657429 0.0160251 0)
(0.0749666 0.0156669 0)
(0.0839253 0.014731 0)
(0.0920383 0.0121089 0)
(0.0946903 0.00359462 0)
(0.10432 -0.0189602 0)
(0.110197 -0.0592407 0)
(0.077008 -0.121271 0)
(0.0811399 -0.195095 0)
(0.0690348 0.0620066 0)
(0.0876423 0.0451171 0)
(0.122847 0.0338403 0)
(0.151839 0.0274341 0)
(0.175238 0.0232101 0)
(0.195509 0.0200616 0)
(0.213727 0.0176101 0)
(0.230355 0.0156557 0)
(0.245714 0.0140616 0)
(0.260085 0.012733 0)
(0.273691 0.0116081 0)
(0.286696 0.010645 0)
(0.299156 0.0098058 0)
(0.310843 0.00899989 0)
(0.320856 0.00778255 0)
(0.32823 0.00432301 0)
(0.323987 -0.00329874 0)
(0.296802 -0.0178661 0)
(0.226263 -0.0474219 0)
(0.165242 -0.102945 0)
)
;

boundaryField
{
    movingWall
    {
        type            fixedValue;
        value           uniform (1 0 0);
    }
    fixedWalls
    {
        type            noSlip;
    }
    frontAndBack
    {
        type            empty;
    }
}


// ************************************************************************* //
