/*--------------------------------*- C++ -*----------------------------------*\
  =========                 |
  \\      /  F ield         | OpenFOAM: The Open Source CFD Toolbox
   \\    /   O peration     | Website:  https://openfoam.org
    \\  /    A nd           | Version:  8
     \\/     M anipulation  |
\*---------------------------------------------------------------------------*/
FoamFile
{
    version     2.0;
    format      ascii;
    class       volScalarField;
    location    "0.5";
    object      p;
}
// * * * * * * * * * * * * * * * * * * * * * * * * * * * * * * * * * * * * * //

dimensions      [0 2 -2 0 0 0 0];

internalField   nonuniform List<scalar> 
400
(
2.10451e-08
4.12118e-06
2.13686e-05
5.23685e-05
9.75776e-05
0.000157695
0.000233485
0.000325641
0.000434636
0.000560529
0.000702706
0.000859566
0.00102798
0.0012029
0.00137723
0.00154187
0.00168606
0.00179843
0.00186896
0.0018944
-4.39569e-06
-5.34305e-07
1.58769e-05
4.59791e-05
9.01634e-05
0.000149137
0.000223738
0.000314771
0.000422863
0.000548268
0.000690585
0.000848412
0.00101892
0.0011974
0.00137669
0.00154729
0.00169771
0.00181538
0.00188881
0.00191565
-2.5391e-05
-2.15623e-05
-5.95249e-06
2.29921e-05
6.57272e-05
0.000123088
0.000196085
0.000285757
0.000393045
0.000518609
0.000662551
0.000824041
0.00100077
0.00118843
0.00137975
0.00156459
0.00173001
0.00186108
0.00194362
0.00197506
-6.35763e-05
-6.02336e-05
-4.57768e-05
-1.84162e-05
2.23805e-05
7.76196e-05
0.000148556
0.000236564
0.000343042
0.000469251
0.000616072
0.000783599
0.000970472
0.00117314
0.00138424
0.0015929
0.00178393
0.00193852
0.00203761
0.00207721
-0.000118829
-0.000116305
-0.000103382
-7.81253e-05
-3.99186e-05
1.24402e-05
8.04943e-05
0.000166029
0.000271012
0.000397492
0.00054738
0.000722048
0.000921673
0.00114462
0.00138349
0.00162687
0.00185673
0.00204841
0.0021748
0.00222925
-0.000190895
-0.000189467
-0.000178543
-0.000156072
-0.000121366
-7.30248e-05
-9.20508e-06
7.23208e-05
0.00017417
0.000299319
0.000450976
0.00063217
0.000844889
0.00109224
0.00136642
0.00165678
0.00194232
0.00219025
0.00236078
0.00244298
-0.00027943
-0.000279388
-0.000271023
-0.000252193
-0.000222169
-0.000179391
-0.000121758
-4.66266e-05
4.92667e-05
0.000169896
0.000319999
0.00050512
0.000731711
0.00100028
0.00131469
0.0016646
0.00202676
0.00235836
0.0026011
0.00273544
-0.000383966
-0.000385611
-0.000380432
-0.000366225
-0.000342295
-0.000307011
-0.000258116
-0.000192681
-0.000106924
3.98843e-06
0.000146161
0.000327224
0.000556336
0.000843559
0.00119814
0.00161732
0.00207929
0.00253292
0.00289667
0.00312498
-0.000503903
-0.00050751
-0.000506142
-0.000497578
-0.000481277
-0.000455683
-0.000418579
-0.000366984
-0.000296898
-0.000202976
-7.81201e-05
8.70366e-05
0.000304943
0.000592941
0.000969699
0.00145667
0.00203431
0.0026564
0.00321879
0.00359106
-0.000638558
-0.000644304
-0.00064725
-0.00064522
-0.000638002
-0.00062433
-0.000602307
-0.000569275
-0.000521502
-0.000453774
-0.000358848
-0.000226774
-4.38071e-05
0.000208849
0.000556692
0.00108692
0.00176335
0.00258015
0.00341417
0.00397524
-0.000787301
-0.000795139
-0.000802582
-0.000807581
-0.000810503
-0.000810649
-0.000806804
-0.000797124
-0.000778849
-0.000747903
-0.000698331
-0.000621532
-0.000504871
-0.000326181
-3.8347e-05
0.000380583
0.00105791
0.00201068
0.00309448
0.00392242
-0.000949866
-0.0009593
-0.000970787
-0.000982518
-0.000995787
-0.00101078
-0.00102737
-0.00104509
-0.00106301
-0.00107957
-0.00109233
-0.00109794
-0.00109227
-0.00106807
-0.000999338
-0.000810618
-0.000318828
0.000607867
0.00181283
0.00306709
-0.00112696
-0.00113664
-0.00115055
-0.00116736
-0.00118975
-0.00121909
-0.00125671
-0.00130401
-0.00136276
-0.00143537
-0.00152557
-0.00163997
-0.00179154
-0.00200161
-0.00227776
-0.00252683
-0.00244781
-0.00174079
-0.000545492
0.00134769
-0.00132145
-0.00132832
-0.00134099
-0.00135907
-0.00138722
-0.0014282
-0.0014849
-0.00156086
-0.00166102
-0.00179287
-0.00196856
-0.00220896
-0.00255207
-0.0030606
-0.00378973
-0.0046497
-0.00518398
-0.00481474
-0.00367458
-0.000921249
-0.0015409
-0.00153817
-0.00154214
-0.00155441
-0.00158219
-0.00162937
-0.00170009
-0.00179965
-0.00193595
-0.00212158
-0.00237756
-0.00274042
-0.00327548
-0.00409147
-0.00530035
-0.00684411
-0.00815252
-0.00809256
-0.00695239
-0.0031231
-0.0018038
-0.00177461
-0.00175522
-0.0017499
-0.00176801
-0.00181325
-0.00188984
-0.0020037
-0.00216439
-0.00238789
-0.00270188
-0.00315512
-0.00383339
-0.00487607
-0.00643425
-0.00845419
-0.0105335
-0.0106313
-0.00955262
-0.0040761
-0.00215556
-0.00205483
-0.00198087
-0.00194012
-0.00193688
-0.00197043
-0.00204301
-0.00215927
-0.0023282
-0.00256643
-0.00290411
-0.00339518
-0.00413056
-0.00523883
-0.00689877
-0.00899813
-0.0115335
-0.0111839
-0.0101563
-0.00105072
-0.0027148
-0.00240305
-0.0022074
-0.00210949
-0.00207458
-0.00208826
-0.00214892
-0.0022577
-0.00242097
-0.00265362
-0.00298516
-0.00346077
-0.00416143
-0.00520333
-0.00672053
-0.00858963
-0.0102644
-0.00968774
-0.00518492
0.0103121
-0.00406414
-0.00291671
-0.00253782
-0.00234464
-0.00225649
-0.00223158
-0.00226733
-0.00235568
-0.00249769
-0.00270441
-0.00299944
-0.00342404
-0.00405257
-0.00500458
-0.00643842
-0.00847801
-0.00962908
-0.00537008
0.0066015
0.0332019
-0.00730038
-0.00228494
-0.00146419
-0.00159309
-0.00168134
-0.0017413
-0.00184251
-0.0019866
-0.00217065
-0.00240437
-0.0027083
-0.00311599
-0.00368659
-0.00452285
-0.00564272
-0.00630154
-0.00429622
0.00455295
0.0235703
0.0569457
)
;

boundaryField
{
    movingWall
    {
        type            zeroGradient;
    }
    fixedWalls
    {
        type            zeroGradient;
    }
    frontAndBack
    {
        type            empty;
    }
}


// ************************************************************************* //
