/*--------------------------------*- C++ -*----------------------------------*\
  =========                 |
  \\      /  F ield         | OpenFOAM: The Open Source CFD Toolbox
   \\    /   O peration     | Website:  https://openfoam.org
    \\  /    A nd           | Version:  8
     \\/     M anipulation  |
\*---------------------------------------------------------------------------*/
FoamFile
{
    version     2.0;
    format      ascii;
    class       surfaceScalarField;
    location    "0.5";
    object      phi;
}
// * * * * * * * * * * * * * * * * * * * * * * * * * * * * * * * * * * * * * //

dimensions      [0 3 -1 0 0 0 0];

internalField   nonuniform List<scalar> 
760
(
-3.14192e-08
3.14172e-08
-7.72836e-08
4.58643e-08
-1.25419e-07
4.81356e-08
-1.73003e-07
4.75834e-08
-2.19106e-07
4.61035e-08
-2.63001e-07
4.38942e-08
-3.03862e-07
4.08616e-08
-3.40694e-07
3.68316e-08
-3.7228e-07
3.15858e-08
-3.97165e-07
2.48852e-08
-4.1367e-07
1.65046e-08
-4.19922e-07
6.25228e-09
-4.1377e-07
-6.15164e-09
-3.93083e-07
-2.06876e-08
-3.56203e-07
-3.68803e-08
-3.02424e-07
-5.37787e-08
-2.32593e-07
-6.98315e-08
-1.50165e-07
-8.24279e-08
-6.41416e-08
-8.60231e-08
-6.41416e-08
-4.85779e-08
7.9995e-08
-1.189e-07
1.16186e-07
-1.91284e-07
1.2052e-07
-2.61781e-07
1.1808e-07
-3.2911e-07
1.13433e-07
-3.92224e-07
1.07007e-07
-4.49951e-07
9.8589e-08
-5.00928e-07
8.78086e-08
-5.43543e-07
7.42e-08
-5.75891e-07
5.72331e-08
-5.95766e-07
3.63799e-08
-6.00794e-07
1.12802e-08
-5.88156e-07
-1.87901e-08
-5.55629e-07
-5.32144e-08
-5.0144e-07
-9.10695e-08
-4.24792e-07
-1.30427e-07
-3.26667e-07
-1.67956e-07
-2.11192e-07
-1.97903e-07
-8.97636e-08
-2.07451e-07
-1.53905e-07
-5.33102e-08
1.33305e-07
-1.29452e-07
1.92328e-07
-2.07645e-07
1.98713e-07
-2.83738e-07
1.94173e-07
-3.56371e-07
1.86065e-07
-4.24465e-07
1.75102e-07
-4.8686e-07
1.60984e-07
-5.42211e-07
1.43159e-07
-5.88922e-07
1.20911e-07
-6.25082e-07
9.33922e-08
-6.48424e-07
5.97221e-08
-6.56429e-07
1.92855e-08
-6.46004e-07
-2.92149e-08
-6.14148e-07
-8.50704e-08
-5.58237e-07
-1.46981e-07
-4.76547e-07
-2.12117e-07
-3.69318e-07
-2.75185e-07
-2.40627e-07
-3.26594e-07
-1.03483e-07
-3.44596e-07
-2.57388e-07
-5.55012e-08
1.88806e-07
-1.34512e-07
2.71338e-07
-2.15742e-07
2.79944e-07
-2.94977e-07
2.73408e-07
-3.70908e-07
2.61996e-07
-4.42564e-07
2.46758e-07
-5.08919e-07
2.27338e-07
-5.68775e-07
2.03015e-07
-6.20662e-07
1.72799e-07
-6.62729e-07
1.35459e-07
-6.92645e-07
8.96381e-08
-7.07557e-07
3.41972e-08
-7.03894e-07
-3.28775e-08
-6.77419e-07
-1.11546e-07
-6.24027e-07
-2.00372e-07
-5.40186e-07
-2.95958e-07
-4.24423e-07
-3.90948e-07
-2.80169e-07
-4.70849e-07
-1.22409e-07
-5.02356e-07
-3.79797e-07
-5.76318e-08
2.46438e-07
-1.3977e-07
3.53476e-07
-2.24345e-07
3.64519e-07
-3.07089e-07
3.56152e-07
-3.86814e-07
3.41722e-07
-4.62737e-07
3.2268e-07
-5.34058e-07
2.9866e-07
-5.99831e-07
2.68787e-07
-6.5881e-07
2.31778e-07
-7.09289e-07
1.85938e-07
-7.48904e-07
1.29253e-07
-7.74431e-07
5.97248e-08
-7.81786e-07
-2.55232e-08
-7.64958e-07
-1.28373e-07
-7.17739e-07
-2.47591e-07
-6.33666e-07
-3.80032e-07
-5.08098e-07
-5.16516e-07
-3.42479e-07
-6.36467e-07
-1.5357e-07
-6.91265e-07
-5.33367e-07
-6.02182e-08
3.06656e-07
-1.46245e-07
4.39502e-07
-2.34909e-07
4.53183e-07
-3.21869e-07
4.43112e-07
-4.06102e-07
4.25955e-07
-4.87087e-07
4.03665e-07
-5.64362e-07
3.75935e-07
-6.3736e-07
3.41786e-07
-7.05228e-07
2.99646e-07
-7.66584e-07
2.47294e-07
-8.19202e-07
1.81871e-07
-8.59549e-07
1.00072e-07
-8.83421e-07
-1.65107e-09
-8.82372e-07
-1.29423e-07
-8.47516e-07
-2.82448e-07
-7.67997e-07
-4.5955e-07
-6.33766e-07
-6.50748e-07
-4.41415e-07
-8.28819e-07
-2.07e-07
-9.2568e-07
-7.40368e-07
-6.33798e-08
3.70036e-07
-1.54101e-07
5.30224e-07
-2.47574e-07
5.46656e-07
-3.39345e-07
5.34882e-07
-4.28596e-07
5.15206e-07
-5.15154e-07
4.90223e-07
-5.99021e-07
4.59802e-07
-6.80191e-07
4.22956e-07
-7.58436e-07
3.77891e-07
-8.33006e-07
3.21863e-07
-9.02189e-07
2.51055e-07
-9.62678e-07
1.60561e-07
-1.00965e-06
4.53176e-08
-1.03362e-06
-1.05452e-07
-1.02173e-06
-2.94338e-07
-9.57294e-07
-5.23983e-07
-8.21833e-07
-7.86209e-07
-6.01618e-07
-1.04903e-06
-3.03595e-07
-1.2237e-06
-1.04396e-06
-6.72182e-08
4.37255e-07
-1.63458e-07
6.26464e-07
-2.62369e-07
6.45566e-07
-3.59334e-07
6.31848e-07
-4.5378e-07
6.09653e-07
-5.45977e-07
5.8242e-07
-6.36539e-07
5.50364e-07
-7.2624e-07
5.12657e-07
-8.1579e-07
4.67442e-07
-9.05503e-07
4.11576e-07
-9.94779e-07
3.4033e-07
-1.08133e-06
2.47113e-07
-1.15966e-06
1.23653e-07
-1.22157e-06
-4.35515e-08
-1.2496e-06
-2.66305e-07
-1.22028e-06
-5.53304e-07
-1.10323e-06
-9.03259e-07
-8.64689e-07
-1.28757e-06
-4.82433e-07
-1.60596e-06
-1.5264e-06
-7.19418e-08
5.09196e-07
-1.74613e-07
7.29135e-07
-2.79508e-07
7.5046e-07
-3.81792e-07
7.34132e-07
-4.81181e-07
7.09041e-07
-5.78484e-07
6.79723e-07
-6.75088e-07
6.46968e-07
-7.72779e-07
6.10348e-07
-8.73562e-07
5.68224e-07
-9.79345e-07
5.17359e-07
-1.0914e-06
4.52386e-07
-1.20941e-06
3.65124e-07
-1.3295e-06
2.43744e-07
-1.44614e-06
7.30854e-08
-1.53875e-06
-1.73693e-07
-1.5769e-06
-5.15157e-07
-1.51384e-06
-9.66318e-07
-1.27959e-06
-1.52182e-06
-7.89017e-07
-2.09653e-06
-2.31541e-06
-7.79737e-08
5.8717e-07
-1.88211e-07
8.39373e-07
-2.99593e-07
8.61842e-07
-4.07025e-07
8.41564e-07
-5.10569e-07
8.12585e-07
-6.11688e-07
7.80842e-07
-7.12681e-07
7.4796e-07
-8.16563e-07
7.1423e-07
-9.26985e-07
6.78646e-07
-1.04808e-06
6.38451e-07
-1.18405e-06
5.88364e-07
-1.33834e-06
5.19405e-07
-1.51177e-06
4.17173e-07
-1.69811e-06
2.59433e-07
-1.8881e-06
1.62925e-08
-2.03268e-06
-3.70573e-07
-2.06158e-06
-9.37417e-07
-1.84602e-06
-1.73738e-06
-1.21113e-06
-2.73142e-06
-3.52655e-06
-8.6115e-08
6.73285e-07
-2.05481e-07
9.58739e-07
-3.23857e-07
9.80219e-07
-4.35917e-07
9.53624e-07
-5.42196e-07
9.18864e-07
-6.44924e-07
8.8357e-07
-7.47418e-07
8.50454e-07
-8.54041e-07
8.20853e-07
-9.70324e-07
7.94929e-07
-1.10314e-06
7.71264e-07
-1.26073e-06
7.45957e-07
-1.45227e-06
7.10944e-07
-1.68609e-06
6.50996e-07
-1.96447e-06
5.37809e-07
-2.26823e-06
3.20059e-07
-2.54434e-06
-9.44697e-08
-2.66644e-06
-8.1532e-07
-2.43554e-06
-1.96828e-06
-1.60922e-06
-3.55773e-06
-5.13577e-06
-9.78264e-08
7.71111e-07
-2.28595e-07
1.08951e-06
-3.54499e-07
1.10612e-06
-4.70234e-07
1.06936e-06
-5.77075e-07
1.0257e-06
-6.78171e-07
9.84667e-07
-7.77881e-07
9.50165e-07
-8.81849e-07
9.24821e-07
-9.9743e-07
9.1051e-07
-1.13438e-06
9.08216e-07
-1.30566e-06
9.17235e-07
-1.52777e-06
9.33052e-07
-1.81855e-06
9.41778e-07
-2.18698e-06
9.06235e-07
-2.60743e-06
7.40508e-07
-2.99062e-06
2.88726e-07
-3.14855e-06
-6.57388e-07
-2.83892e-06
-2.27791e-06
-1.82145e-06
-4.5752e-06
-6.95722e-06
-1.15748e-07
8.86859e-07
-2.61245e-07
1.235e-06
-3.95132e-07
1.24001e-06
-5.12956e-07
1.18718e-06
-6.17292e-07
1.13004e-06
-7.12433e-07
1.07981e-06
-8.03685e-07
1.04142e-06
-8.97602e-07
1.01874e-06
-1.00277e-06
1.01568e-06
-1.13115e-06
1.03659e-06
-1.29973e-06
1.08582e-06
-1.53173e-06
1.16505e-06
-1.85296e-06
1.26302e-06
-2.27507e-06
1.32834e-06
-2.76007e-06
1.22551e-06
-3.18334e-06
7.11993e-07
-3.3253e-06
-5.15424e-07
-2.93354e-06
-2.66968e-06
-1.8198e-06
-5.68894e-06
-8.77702e-06
-1.44733e-07
1.03159e-06
-3.09582e-07
1.39985e-06
-4.51362e-07
1.38179e-06
-5.68586e-07
1.30441e-06
-6.6624e-07
1.22769e-06
-7.50084e-07
1.16365e-06
-8.26124e-07
1.11746e-06
-9.01064e-07
1.09368e-06
-9.83387e-07
1.09801e-06
-1.08511e-06
1.13831e-06
-1.22409e-06
1.2248e-06
-1.42533e-06
1.36629e-06
-1.71639e-06
1.55407e-06
-2.1089e-06
1.72086e-06
-2.56476e-06
1.68137e-06
-2.96711e-06
1.11434e-06
-3.10078e-06
-3.81753e-07
-2.71303e-06
-3.05743e-06
-1.65331e-06
-6.74867e-06
-1.04303e-05
-1.94123e-07
1.22572e-06
-3.83718e-07
1.58945e-06
-5.31348e-07
1.52942e-06
-6.43174e-07
1.41623e-06
-7.28476e-07
1.313e-06
-7.94824e-07
1.23e-06
-8.48482e-07
1.17111e-06
-8.95157e-07
1.14035e-06
-9.41174e-07
1.14402e-06
-9.95163e-07
1.1923e-06
-1.07016e-06
1.2998e-06
-1.185e-06
1.48113e-06
-1.36192e-06
1.73099e-06
-1.61735e-06
1.97629e-06
-1.94153e-06
2.00555e-06
-2.26563e-06
1.43845e-06
-2.44494e-06
-2.0245e-07
-2.17811e-06
-3.32426e-06
-1.34003e-06
-7.58674e-06
-1.17704e-05
-2.80877e-07
1.50659e-06
-4.99517e-07
1.80809e-06
-6.45273e-07
1.67518e-06
-7.42568e-07
1.51353e-06
-8.07564e-07
1.37799e-06
-8.49461e-07
1.2719e-06
-8.74054e-07
1.19571e-06
-8.84763e-07
1.15106e-06
-8.83587e-07
1.14285e-06
-8.72231e-07
1.18094e-06
-8.53411e-07
1.28098e-06
-8.3243e-07
1.46015e-06
-8.19441e-07
1.718e-06
-8.3527e-07
1.99212e-06
-9.20158e-07
2.09044e-06
-1.07279e-06
1.59108e-06
-1.31814e-06
4.28972e-08
-1.25074e-06
-3.39166e-06
-8.55312e-07
-7.98217e-06
-1.26257e-05
-4.35822e-07
1.94242e-06
-6.76998e-07
2.04926e-06
-7.95334e-07
1.79351e-06
-8.58506e-07
1.5767e-06
-8.89676e-07
1.40916e-06
-8.9714e-07
1.27936e-06
-8.85165e-07
1.18373e-06
-8.53859e-07
1.11976e-06
-7.99475e-07
1.08846e-06
-7.14886e-07
1.09636e-06
-5.90187e-07
1.15628e-06
-4.15356e-07
1.28532e-06
-1.83574e-07
1.48622e-06
8.41806e-08
1.72436e-06
3.29821e-07
1.8448e-06
3.82503e-07
1.53839e-06
2.53267e-07
1.72133e-07
-2.85752e-08
-3.10981e-06
-1.7771e-08
-7.99297e-06
-1.26434e-05
-6.96154e-07
2.63857e-06
-8.91694e-07
2.2448e-06
-8.97936e-07
1.79975e-06
-8.71627e-07
1.55039e-06
-8.29286e-07
1.36682e-06
-7.70426e-07
1.2205e-06
-6.97524e-07
1.11083e-06
-6.07994e-07
1.03023e-06
-4.93542e-07
9.7401e-07
-3.39691e-07
9.42505e-07
-1.24061e-07
9.40649e-07
1.83944e-07
9.7731e-07
5.96205e-07
1.07396e-06
1.10227e-06
1.2183e-06
1.6088e-06
1.33826e-06
1.90043e-06
1.24677e-06
2.17464e-06
-1.02079e-07
1.92126e-06
-2.85644e-06
1.02937e-06
-7.10108e-06
-1.16141e-05
-8.47936e-07
3.48651e-06
-6.36388e-07
2.03326e-06
-2.7675e-07
1.44012e-06
5.08447e-08
1.2228e-06
3.49292e-07
1.06838e-06
6.26628e-07
9.43165e-07
8.9073e-07
8.46728e-07
1.14796e-06
7.72998e-07
1.40681e-06
7.15161e-07
1.6797e-06
6.69609e-07
1.98533e-06
6.35023e-07
2.35113e-06
6.11508e-07
2.82167e-06
6.03417e-07
3.43054e-06
6.09439e-07
4.18906e-06
5.79745e-07
5.11844e-06
3.17388e-07
5.67857e-06
-6.62208e-07
5.20174e-06
-2.37962e-06
3.10561e-06
-5.00495e-06
-8.50846e-06
3.48651e-06
5.51976e-06
6.95988e-06
8.18267e-06
9.25105e-06
1.01942e-05
1.10409e-05
1.18139e-05
1.25291e-05
1.31987e-05
1.38337e-05
1.44452e-05
1.50487e-05
1.56581e-05
1.62378e-05
1.65552e-05
1.5893e-05
1.35134e-05
8.50846e-06
)
;

boundaryField
{
    movingWall
    {
        type            calculated;
        value           uniform 0;
    }
    fixedWalls
    {
        type            calculated;
        value           uniform 0;
    }
    frontAndBack
    {
        type            empty;
        value           nonuniform List<scalar> 0();
    }
}


// ************************************************************************* //
