/*--------------------------------*- C++ -*----------------------------------*\
  =========                 |
  \\      /  F ield         | OpenFOAM: The Open Source CFD Toolbox
   \\    /   O peration     | Website:  https://openfoam.org
    \\  /    A nd           | Version:  8
     \\/     M anipulation  |
\*---------------------------------------------------------------------------*/
FoamFile
{
    version     2.0;
    format      ascii;
    class       volVectorField;
    location    "0.5";
    object      U;
}
// * * * * * * * * * * * * * * * * * * * * * * * * * * * * * * * * * * * * * //

dimensions      [0 1 -1 0 0 0 0];

internalField   nonuniform List<vector> 
400
(
(-0.000242734 0.000237103 0)
(-0.00107162 0.00031614 0)
(-0.00202684 0.000332561 0)
(-0.00299086 0.000333283 0)
(-0.00393123 0.000328641 0)
(-0.00483405 0.000319353 0)
(-0.00568458 0.000304525 0)
(-0.00646474 0.000282582 0)
(-0.00715239 0.000251537 0)
(-0.00772071 0.000209246 0)
(-0.00813792 0.000153651 0)
(-0.00836731 8.26011e-05 0)
(-0.00837275 -7.7658e-06 0)
(-0.00810722 -0.000118421 0)
(-0.00753182 -0.0002459 0)
(-0.00662285 -0.000382202 0)
(-0.00537966 -0.00051404 0)
(-0.0038416 -0.000620131 0)
(-0.0021363 -0.0006591 0)
(-0.000540627 -0.000532724 0)
(-0.000344697 0.00108787 0)
(-0.00166566 0.00159671 0)
(-0.00310624 0.00166719 0)
(-0.00454425 0.00163994 0)
(-0.00592807 0.00158073 0)
(-0.00723718 0.00149638 0)
(-0.00845041 0.0013839 0)
(-0.00954258 0.00123783 0)
(-0.0104839 0.00105136 0)
(-0.0112392 0.000816926 0)
(-0.0117672 0.000527047 0)
(-0.0120217 0.000175164 0)
(-0.0119495 -0.00024438 0)
(-0.0114997 -0.000729716 0)
(-0.0106323 -0.00126543 0)
(-0.00932007 -0.00182183 0)
(-0.00756179 -0.00234978 0)
(-0.00540581 -0.00276615 0)
(-0.00302154 -0.00288966 0)
(-0.000695572 -0.00213612 0)
(-0.000374339 0.00212155 0)
(-0.00182266 0.00307035 0)
(-0.00337659 0.00317706 0)
(-0.00492956 0.00310741 0)
(-0.00642284 0.00298019 0)
(-0.00783508 0.00280666 0)
(-0.00914503 0.00258157 0)
(-0.0103279 0.00229571 0)
(-0.0113542 0.00193727 0)
(-0.0121889 0.00149252 0)
(-0.0127899 0.000947154 0)
(-0.0131087 0.000288868 0)
(-0.0130903 -0.000488001 0)
(-0.012672 -0.00138176 0)
(-0.0117964 -0.00236876 0)
(-0.0104187 -0.0034002 0)
(-0.00851952 -0.00439036 0)
(-0.00613834 -0.00518856 0)
(-0.0034671 -0.00545635 0)
(-0.000800494 -0.00406353 0)
(-0.000387831 0.00321278 0)
(-0.0018961 0.00462392 0)
(-0.003508 0.00477307 0)
(-0.00512326 0.00466226 0)
(-0.00668087 0.00446696 0)
(-0.00816148 0.00420455 0)
(-0.00954639 0.00386836 0)
(-0.0108137 0.00344564 0)
(-0.0119369 0.00291936 0)
(-0.0128828 0.00226881 0)
(-0.0136094 0.00147125 0)
(-0.0140636 0.000505575 0)
(-0.0141846 -0.000641088 0)
(-0.0138923 -0.00197409 0)
(-0.0131005 -0.0034665 0)
(-0.0117314 -0.00505352 0)
(-0.00972864 -0.00660909 0)
(-0.00710495 -0.00789577 0)
(-0.0040719 -0.00837412 0)
(-0.000957722 -0.0062955 0)
(-0.000400468 0.00434297 0)
(-0.00196962 0.0062334 0)
(-0.00364621 0.0064291 0)
(-0.00533037 0.00628002 0)
(-0.00696065 0.0060213 0)
(-0.00852132 0.00567767 0)
(-0.00999799 0.00524171 0)
(-0.0113737 0.00469743 0)
(-0.0126268 0.00402213 0)
(-0.0137283 0.00318668 0)
(-0.0146371 0.00215698 0)
(-0.0152968 0.000897997 0)
(-0.0156358 -0.000619325 0)
(-0.015557 -0.00241795 0)
(-0.0149308 -0.00447863 0)
(-0.01363 -0.00673017 0)
(-0.0115345 -0.00900642 0)
(-0.00860098 -0.0109604 0)
(-0.00504837 -0.0117871 0)
(-0.00122597 -0.00899672 0)
(-0.000415594 0.00551902 0)
(-0.00205957 0.00791139 0)
(-0.00381637 0.00815794 0)
(-0.00558385 0.00797376 0)
(-0.00730074 0.00765771 0)
(-0.0089562 0.00724341 0)
(-0.010542 0.00672381 0)
(-0.0120486 0.00608025 0)
(-0.0134623 0.00528413 0)
(-0.0147615 0.00429637 0)
(-0.0159105 0.00306794 0)
(-0.0168522 0.00154276 0)
(-0.0175045 -0.000337534 0)
(-0.017758 -0.00261626 0)
(-0.017424 -0.00531457 0)
(-0.0163064 -0.00837192 0)
(-0.0141848 -0.0115929 0)
(-0.0109103 -0.0145008 0)
(-0.00666562 -0.0159406 0)
(-0.00171091 -0.0124809 0)
(-0.000434225 0.00675211 0)
(-0.00216935 0.00967488 0)
(-0.00402183 0.00997568 0)
(-0.00588573 0.009758 0)
(-0.00769995 0.00938989 0)
(-0.00945993 0.00891621 0)
(-0.0111657 0.00833211 0)
(-0.0128182 0.00761761 0)
(-0.0144159 0.00673885 0)
(-0.0159502 0.00564605 0)
(-0.0173976 0.004272 0)
(-0.0187103 0.00253177 0)
(-0.0197979 0.000326559 0)
(-0.0205379 -0.00242209 0)
(-0.0206998 -0.00581442 0)
(-0.0199825 -0.0098365 0)
(-0.0180248 -0.0142964 0)
(-0.0145003 -0.0185935 0)
(-0.00943602 -0.0211538 0)
(-0.00266951 -0.0173166 0)
(-0.000457427 0.00805466 0)
(-0.00230171 0.0115402 0)
(-0.00426446 0.0118961 0)
(-0.00623486 0.0116429 0)
(-0.00815162 0.0112252 0)
(-0.0100179 0.0107024 0)
(-0.0118445 0.0100747 0)
(-0.0136463 0.00932332 0)
(-0.0154393 0.00841126 0)
(-0.0172354 0.00727913 0)
(-0.0190341 0.0058406 0)
(-0.0208094 0.00397827 0)
(-0.022483 0.00154576 0)
(-0.0239092 -0.00162365 0)
(-0.0248709 -0.00571292 0)
(-0.0249282 -0.0108335 0)
(-0.0235461 -0.0168624 0)
(-0.020122 -0.0231602 0)
(-0.0142415 -0.0277742 0)
(-0.00470741 -0.0245615 0)
(-0.000487377 0.00944185 0)
(-0.00246253 0.0135246 0)
(-0.00455011 0.0139309 0)
(-0.00663362 0.0136339 0)
(-0.00865113 0.0131634 0)
(-0.0106151 0.012598 0)
(-0.0125496 0.0119469 0)
(-0.0144873 0.0111967 0)
(-0.0164673 0.0103113 0)
(-0.0185305 0.00922582 0)
(-0.0207124 0.00783756 0)
(-0.0230276 0.00599611 0)
(-0.0254436 0.00349202 0)
(-0.0278317 4.2458e-05 0)
(-0.0299957 -0.00460806 0)
(-0.03141 -0.0108486 0)
(-0.0313202 -0.0187276 0)
(-0.0286661 -0.0278068 0)
(-0.0220402 -0.0360589 0)
(-0.00875684 -0.0361554 0)
(-0.000528519 0.0109349 0)
(-0.00266391 0.0156481 0)
(-0.00489234 0.0160908 0)
(-0.00709206 0.0157308 0)
(-0.00920009 0.0151945 0)
(-0.0112402 0.0145855 0)
(-0.013252 0.0139268 0)
(-0.0152894 0.0132158 0)
(-0.0174197 0.0124244 0)
(-0.0197223 0.0114905 0)
(-0.0222838 0.0103041 0)
(-0.0251882 0.0086888 0)
(-0.028491 0.00637549 0)
(-0.0321528 0.00297462 0)
(-0.0359532 -0.00203458 0)
(-0.0394966 -0.00914143 0)
(-0.0415693 -0.0190645 0)
(-0.0402584 -0.0319983 0)
(-0.0325995 -0.0465488 0)
(-0.0146802 -0.0552686 0)
(-0.000589456 0.0125666 0)
(-0.00292855 0.0179371 0)
(-0.00531739 0.0183859 0)
(-0.00763267 0.0179273 0)
(-0.00981095 0.0172975 0)
(-0.0118899 0.016631 0)
(-0.0139272 0.0159703 0)
(-0.0159994 0.0153303 0)
(-0.0182052 0.0147002 0)
(-0.0206684 0.0140347 0)
(-0.023541 0.0132358 0)
(-0.0270037 0.0121247 0)
(-0.0312549 0.010398 0)
(-0.0364488 0.00755212 0)
(-0.0424455 0.00277205 0)
(-0.0485393 -0.00502777 0)
(-0.0531904 -0.0173893 0)
(-0.0528028 -0.0360839 0)
(-0.0432299 -0.0609245 0)
(-0.0193699 -0.0842376 0)
(-0.000686456 0.0143914 0)
(-0.00329695 0.0204296 0)
(-0.00587132 0.0208274 0)
(-0.00829674 0.0202095 0)
(-0.0105127 0.0194371 0)
(-0.0125757 0.018681 0)
(-0.0145626 0.018007 0)
(-0.0165722 0.0174538 0)
(-0.0187322 0.0170393 0)
(-0.0212103 0.0167542 0)
(-0.0242294 0.0165435 0)
(-0.0280853 0.0162695 0)
(-0.0331547 0.0156349 0)
(-0.039826 0.0140142 0)
(-0.0481258 0.0101164 0)
(-0.0568621 0.00157889 0)
(-0.0630984 -0.0144871 0)
(-0.062197 -0.0416813 0)
(-0.0502955 -0.0803373 0)
(-0.0194837 -0.120451 0)
(-0.00085034 0.0165028 0)
(-0.00383965 0.0231813 0)
(-0.00663048 0.0234265 0)
(-0.00915195 0.0225539 0)
(-0.0113572 0.0215625 0)
(-0.0133296 0.0206608 0)
(-0.0151665 0.0199383 0)
(-0.0169838 0.01946 0)
(-0.018928 0.0192822 0)
(-0.0211964 0.0194536 0)
(-0.0240673 0.0200024 0)
(-0.0279372 0.0208891 0)
(-0.0333459 0.0218611 0)
(-0.0408812 0.0220646 0)
(-0.0506284 0.0193449 0)
(-0.0609561 0.00975522 0)
(-0.067412 -0.011835 0)
(-0.0650503 -0.0495852 0)
(-0.0524682 -0.103047 0)
(-0.0153362 -0.158317 0)
(-0.00114105 0.0190661 0)
(-0.00467897 0.0262732 0)
(-0.00771642 0.0261907 0)
(-0.0103006 0.0249205 0)
(-0.0124235 0.0236027 0)
(-0.0142098 0.0224744 0)
(-0.0157774 0.0216397 0)
(-0.0172491 0.0211854 0)
(-0.0187692 0.0212086 0)
(-0.0205307 0.0218311 0)
(-0.0228151 0.0231965 0)
(-0.0260383 0.0254069 0)
(-0.0307859 0.0282561 0)
(-0.0377327 0.0305288 0)
(-0.0470711 0.0289431 0)
(-0.0572329 0.0178034 0)
(-0.063578 -0.00969463 0)
(-0.0600477 -0.0585454 0)
(-0.0504251 -0.12595 0)
(-0.00876491 -0.194024 0)
(-0.00168164 0.0223848 0)
(-0.00602897 0.0298118 0)
(-0.00931549 0.0291053 0)
(-0.0118837 0.0272383 0)
(-0.0138159 0.0254608 0)
(-0.0152978 0.0240057 0)
(-0.0164656 0.0229695 0)
(-0.0174333 0.022443 0)
(-0.0183123 0.0225509 0)
(-0.0192389 0.0234795 0)
(-0.0204105 0.0254843 0)
(-0.0221244 0.0288046 0)
(-0.0248257 0.0332766 0)
(-0.0291739 0.0373801 0)
(-0.0357719 0.0369207 0)
(-0.0440805 0.024708 0)
(-0.0505828 -0.00737641 0)
(-0.0463519 -0.066494 0)
(-0.0444688 -0.146109 0)
(-0.000602 -0.225534 0)
(-0.00273725 0.0270267 0)
(-0.00826792 0.0339178 0)
(-0.0116885 0.0320874 0)
(-0.0140552 0.029375 0)
(-0.0156229 0.0270024 0)
(-0.0166533 0.0251226 0)
(-0.0172893 0.0237868 0)
(-0.0176171 0.0230592 0)
(-0.0176822 0.0230609 0)
(-0.0175094 0.0240049 0)
(-0.0171247 0.0262101 0)
(-0.0165825 0.0300085 0)
(-0.0160287 0.0353169 0)
(-0.0159624 0.0406546 0)
(-0.0174826 0.0417052 0)
(-0.0211089 0.0303252 0)
(-0.0276222 -0.00212178 0)
(-0.0221966 -0.0706548 0)
(-0.0337369 -0.160836 0)
(0.00924345 -0.25035 0)
(-0.00482254 0.0340473 0)
(-0.011998 0.038596 0)
(-0.0150449 0.0348449 0)
(-0.0167384 0.031058 0)
(-0.0176123 0.028017 0)
(-0.0179607 0.0256572 0)
(-0.0178949 0.0239494 0)
(-0.0174538 0.0228911 0)
(-0.0165938 0.0225519 0)
(-0.0151948 0.0231102 0)
(-0.0130698 0.0248689 0)
(-0.0100106 0.0281749 0)
(-0.00584936 0.0330149 0)
(-0.000710689 0.0384925 0)
(0.00390961 0.0411723 0)
(0.00984635 0.0331084 0)
(0.00129175 0.00277785 0)
(0.0115071 -0.0672335 0)
(-0.0157602 -0.167083 0)
(0.0220349 -0.2624 0)
(-0.00875229 0.0463752 0)
(-0.0175196 0.0439871 0)
(-0.0182623 0.0375438 0)
(-0.0178719 0.0325594 0)
(-0.017109 0.0288407 0)
(-0.0160698 0.0259438 0)
(-0.0147387 0.0237876 0)
(-0.013118 0.0222548 0)
(-0.0110949 0.0213156 0)
(-0.00843563 0.021056 0)
(-0.00479021 0.0216821 0)
(0.000230747 0.0235096 0)
(0.00748718 0.0269409 0)
(0.0169924 0.0314575 0)
(0.0268379 0.034688 0)
(0.0358772 0.0324341 0)
(0.0333055 0.00724017 0)
(0.048744 -0.0609524 0)
(0.0174118 -0.156233 0)
(0.0425621 -0.24905 0)
(-0.0112833 0.0634011 0)
(-0.018219 0.0408668 0)
(-0.0092042 0.0291064 0)
(-0.00227085 0.0252923 0)
(0.00417242 0.0224191 0)
(0.00979719 0.0199893 0)
(0.0152094 0.0181536 0)
(0.020423 0.0168017 0)
(0.0255747 0.0157933 0)
(0.030873 0.0150736 0)
(0.0366268 0.0146606 0)
(0.0432876 0.0146349 0)
(0.0515696 0.0152721 0)
(0.0623361 0.016608 0)
(0.0757895 0.0173207 0)
(0.0868589 0.0120185 0)
(0.105706 -0.0143007 0)
(0.115609 -0.0591874 0)
(0.0801352 -0.123755 0)
(0.0818045 -0.198092 0)
(0.0694317 0.0627623 0)
(0.0884909 0.0457092 0)
(0.123559 0.0343595 0)
(0.152154 0.0279154 0)
(0.175184 0.0236534 0)
(0.195016 0.0204889 0)
(0.212756 0.0180344 0)
(0.228875 0.0160863 0)
(0.243699 0.0145031 0)
(0.257499 0.0131854 0)
(0.270505 0.0120593 0)
(0.28294 0.0110608 0)
(0.295039 0.0101363 0)
(0.306967 0.0092223 0)
(0.318338 0.00798403 0)
(0.328084 0.00462982 0)
(0.328244 -0.00340822 0)
(0.302693 -0.0185989 0)
(0.230938 -0.0488348 0)
(0.167559 -0.104915 0)
)
;

boundaryField
{
    movingWall
    {
        type            fixedValue;
        value           uniform (1 0 0);
    }
    fixedWalls
    {
        type            noSlip;
    }
    frontAndBack
    {
        type            empty;
    }
}


// ************************************************************************* //
