/*--------------------------------*- C++ -*----------------------------------*\
  =========                 |
  \\      /  F ield         | OpenFOAM: The Open Source CFD Toolbox
   \\    /   O peration     | Website:  https://openfoam.org
    \\  /    A nd           | Version:  8
     \\/     M anipulation  |
\*---------------------------------------------------------------------------*/
FoamFile
{
    version     2.0;
    format      ascii;
    class       volScalarField;
    location    "4";
    object      p;
}
// * * * * * * * * * * * * * * * * * * * * * * * * * * * * * * * * * * * * * //

dimensions      [0 2 -2 0 0 0 0];

internalField   nonuniform List<scalar> 
400
(
5.59436e-08
-0.000160149
-0.000354098
-0.000573145
-0.000900427
-0.00134471
-0.00190223
-0.00252099
-0.00311057
-0.00355748
-0.00373847
-0.00352858
-0.00281069
-0.00150367
0.00039436
0.00277656
0.00531755
0.00741429
0.00842698
0.00826622
0.000149626
1.74636e-05
-0.000223261
-0.000513589
-0.000897177
-0.00141057
-0.00204667
-0.00274841
-0.00342072
-0.00394779
-0.00420959
-0.00409107
-0.00348958
-0.00234661
-0.000602761
0.00163964
0.00408961
0.00622316
0.00741599
0.00750508
0.000441341
0.000200536
-0.000131924
-0.000564166
-0.00113069
-0.00184051
-0.00266413
-0.00353046
-0.00433824
-0.00497415
-0.00533065
-0.00531481
-0.00484094
-0.00382258
-0.00224494
-0.000180504
0.00216733
0.00437378
0.00580488
0.00614152
0.000529171
0.000216764
-0.000263702
-0.000897129
-0.00169152
-0.00262547
-0.00364433
-0.00466418
-0.00558373
-0.00630119
-0.00672981
-0.00679906
-0.00643749
-0.00558513
-0.00423155
-0.00240207
-0.000210835
0.00202367
0.00365333
0.00422594
0.000253042
-0.000112494
-0.000718803
-0.00152809
-0.00251509
-0.00362899
-0.00479523
-0.00592145
-0.00690998
-0.00767313
-0.00814457
-0.00827477
-0.00801412
-0.00733534
-0.00623262
-0.00468872
-0.00273321
-0.000566764
0.00115813
0.00193487
-0.000390809
-0.000778671
-0.00145914
-0.00237856
-0.00348677
-0.00470968
-0.00595709
-0.00713098
-0.00813834
-0.00890439
-0.00938004
-0.0095358
-0.00935132
-0.00883374
-0.00798314
-0.00675341
-0.00510729
-0.00311436
-0.00141881
-0.000489629
-0.00127013
-0.00165267
-0.00235797
-0.00332278
-0.00448125
-0.0057436
-0.00700895
-0.00817586
-0.0091557
-0.00988448
-0.0103282
-0.010478
-0.0103426
-0.0099561
-0.0093287
-0.00840451
-0.00710944
-0.00537561
-0.00382828
-0.00280298
-0.00221289
-0.0025745
-0.00327088
-0.00423284
-0.005387
-0.00663556
-0.00787229
-0.00899463
-0.00991779
-0.0105863
-0.0109791
-0.0111057
-0.0109976
-0.010703
-0.0102443
-0.00957415
-0.0086225
-0.00719081
-0.00587755
-0.0048101
-0.0030841
-0.00341021
-0.00407866
-0.00500669
-0.0061213
-0.00732341
-0.00850666
-0.00956974
-0.010431
-0.0110409
-0.0113869
-0.0114884
-0.0113945
-0.0111504
-0.0107944
-0.010297
-0.00963596
-0.00849752
-0.00745577
-0.00638464
-0.00380123
-0.00407341
-0.00470146
-0.00557644
-0.00663149
-0.00777142
-0.00889445
-0.00990261
-0.0107167
-0.0112892
-0.0116101
-0.0116979
-0.0116068
-0.0113762
-0.0110649
-0.0106473
-0.0102119
-0.00931032
-0.00852966
-0.00746325
-0.00431317
-0.00453681
-0.00510336
-0.00590976
-0.00689217
-0.00796418
-0.00903072
-0.00999705
-0.0107844
-0.0113426
-0.011658
-0.0117502
-0.0116533
-0.0114107
-0.0111099
-0.0106806
-0.010425
-0.00967649
-0.00911092
-0.00802265
-0.00461484
-0.00479718
-0.00529002
-0.00601411
-0.00691383
-0.00791458
-0.00892817
-0.00986216
-0.0106362
-0.0111954
-0.0115183
-0.0116118
-0.0115066
-0.011255
-0.01092
-0.0104825
-0.0102877
-0.00962387
-0.00923558
-0.00805517
-0.00474106
-0.00487902
-0.00528243
-0.00590837
-0.00671656
-0.007644
-0.00860765
-0.00951532
-0.010283
-0.0108495
-0.0111829
-0.0112778
-0.0111699
-0.0109052
-0.0105337
-0.0100686
-0.00984007
-0.00916026
-0.00898817
-0.00753662
-0.0047412
-0.00482397
-0.00510942
-0.00561221
-0.00631701
-0.0071705
-0.00809043
-0.00898109
-0.00975229
-0.0103345
-0.010686
-0.0107911
-0.0106825
-0.0104015
-0.00999003
-0.0094834
-0.00917883
-0.00829047
-0.00848224
-0.00636696
-0.00466737
-0.00467366
-0.00479827
-0.00514551
-0.00573451
-0.0065179
-0.00740688
-0.00829646
-0.00908692
-0.00969908
-0.0100814
-0.0102092
-0.0101091
-0.00981063
-0.00935564
-0.00879455
-0.00836549
-0.00722213
-0.00760462
-0.00435482
-0.00457351
-0.00444819
-0.00436309
-0.00452535
-0.0049943
-0.0057212
-0.00660061
-0.00751163
-0.00834196
-0.00900206
-0.00943186
-0.0096005
-0.0095105
-0.00920362
-0.00871714
-0.00809989
-0.0074863
-0.00608608
-0.0060666
-0.00121957
-0.00452497
-0.00412009
-0.00379728
-0.00376394
-0.00412873
-0.00482836
-0.00572931
-0.00668978
-0.00758361
-0.00831138
-0.00880547
-0.00902963
-0.0089767
-0.00867865
-0.00817845
-0.00750069
-0.00661653
-0.00471074
-0.00316956
0.00469235
-0.00451796
-0.00372835
-0.00309958
-0.00288354
-0.00318471
-0.00389932
-0.00485671
-0.00589349
-0.0068712
-0.00768281
-0.00825544
-0.00854877
-0.00855016
-0.0082663
-0.00771125
-0.00691959
-0.00566262
-0.00241651
0.00303248
0.0179365
-0.00506346
-0.00332272
-0.00237162
-0.00203088
-0.0023298
-0.0031054
-0.00415038
-0.00528254
-0.00635377
-0.00725328
-0.0079071
-0.0082748
-0.00834544
-0.00813653
-0.007705
-0.00705965
-0.00455201
0.00219996
0.0151973
0.0416305
-0.00820052
-0.00213583
-0.000541407
-0.000559961
-0.00112531
-0.0020722
-0.00327421
-0.00455319
-0.00575293
-0.00676231
-0.00750936
-0.00795349
-0.00807452
-0.00782957
-0.00695978
-0.0045084
0.000798833
0.0120405
0.0320568
0.0654547
)
;

boundaryField
{
    movingWall
    {
        type            zeroGradient;
    }
    fixedWalls
    {
        type            zeroGradient;
    }
    frontAndBack
    {
        type            empty;
    }
}


// ************************************************************************* //
