/*--------------------------------*- C++ -*----------------------------------*\
  =========                 |
  \\      /  F ield         | OpenFOAM: The Open Source CFD Toolbox
   \\    /   O peration     | Website:  https://openfoam.org
    \\  /    A nd           | Version:  8
     \\/     M anipulation  |
\*---------------------------------------------------------------------------*/
FoamFile
{
    version     2.0;
    format      ascii;
    class       surfaceScalarField;
    location    "4";
    object      phi;
}
// * * * * * * * * * * * * * * * * * * * * * * * * * * * * * * * * * * * * * //

dimensions      [0 3 -1 0 0 0 0];

internalField   nonuniform List<scalar> 
760
(
2.26763e-07
-2.26768e-07
2.45289e-07
-1.85263e-08
-2.00213e-09
2.47291e-07
-5.01526e-07
4.99523e-07
-1.16449e-06
6.62964e-07
-1.92192e-06
7.57427e-07
-2.71357e-06
7.91657e-07
-3.48817e-06
7.74591e-07
-4.20274e-06
7.14578e-07
-4.82106e-06
6.18311e-07
-5.31154e-06
4.90489e-07
-5.64429e-06
3.32749e-07
-5.78739e-06
1.431e-07
-5.69874e-06
-8.86521e-08
-5.33353e-06
-3.65214e-07
-4.65033e-06
-6.83201e-07
-3.62912e-06
-1.02121e-06
-2.30737e-06
-1.32175e-06
-8.91971e-07
-1.4154e-06
-8.91971e-07
-2.24226e-07
-2.54247e-09
-7.38982e-07
4.9623e-07
-1.45138e-06
9.59689e-07
-2.24371e-06
1.29185e-06
-3.08459e-06
1.50385e-06
-3.93178e-06
1.60462e-06
-4.74276e-06
1.60264e-06
-5.47835e-06
1.51018e-06
-6.10376e-06
1.33999e-06
-6.58893e-06
1.10348e-06
-6.90783e-06
8.09392e-07
-7.03687e-06
4.61791e-07
-6.94382e-06
5.00448e-08
-6.62874e-06
-4.0373e-07
-6.07347e-06
-9.20483e-07
-5.26145e-06
-1.49522e-06
-4.17169e-06
-2.11097e-06
-2.81418e-06
-2.67927e-06
-1.29805e-06
-2.93153e-06
-2.19002e-06
-6.15995e-07
6.13452e-07
-1.40017e-06
1.2804e-06
-2.20387e-06
1.76339e-06
-3.01418e-06
2.10217e-06
-3.80563e-06
2.29529e-06
-4.54878e-06
2.34777e-06
-5.21602e-06
2.26988e-06
-5.78235e-06
2.0765e-06
-6.22696e-06
1.78461e-06
-6.53417e-06
1.41068e-06
-6.69291e-06
9.68131e-07
-6.69494e-06
4.63827e-07
-6.5403e-06
-1.04599e-07
-6.22401e-06
-7.20015e-07
-5.73456e-06
-1.40993e-06
-5.03893e-06
-2.19086e-06
-4.09762e-06
-3.05228e-06
-2.88428e-06
-3.89261e-06
-1.43844e-06
-4.37737e-06
-3.62846e-06
-7.5014e-07
1.36359e-06
-1.592e-06
2.12226e-06
-2.39498e-06
2.56637e-06
-3.14813e-06
2.85532e-06
-3.83945e-06
2.98661e-06
-4.45254e-06
2.96087e-06
-4.97173e-06
2.78907e-06
-5.38452e-06
2.48929e-06
-5.68299e-06
2.08308e-06
-5.86422e-06
1.59192e-06
-5.92967e-06
1.03358e-06
-5.88405e-06
4.18204e-07
-5.73835e-06
-2.50296e-07
-5.48775e-06
-9.70618e-07
-5.11477e-06
-1.78291e-06
-4.58078e-06
-2.72485e-06
-3.82839e-06
-3.80467e-06
-2.79237e-06
-4.92863e-06
-1.45617e-06
-5.71357e-06
-5.08463e-06
-7.15802e-07
2.07939e-06
-1.51205e-06
2.91851e-06
-2.24937e-06
3.30368e-06
-2.91233e-06
3.51829e-06
-3.49237e-06
3.56664e-06
-3.98055e-06
3.44904e-06
-4.36956e-06
3.17807e-06
-4.65555e-06
2.77529e-06
-4.83941e-06
2.26693e-06
-4.9271e-06
1.67961e-06
-4.92938e-06
1.03586e-06
-4.86093e-06
3.4976e-07
-4.73794e-06
-3.73286e-07
-4.56142e-06
-1.14714e-06
-4.31601e-06
-2.02832e-06
-3.95887e-06
-3.08199e-06
-3.4159e-06
-4.34764e-06
-2.58364e-06
-5.76089e-06
-1.3983e-06
-6.8989e-06
-6.48293e-06
-5.93879e-07
2.67327e-06
-1.28756e-06
3.61219e-06
-1.92333e-06
3.93946e-06
-2.47953e-06
4.07448e-06
-2.94802e-06
4.03513e-06
-3.32316e-06
3.82419e-06
-3.60191e-06
3.45683e-06
-3.78483e-06
2.95821e-06
-3.87723e-06
2.35933e-06
-3.89021e-06
1.69259e-06
-3.84139e-06
9.8704e-07
-3.75473e-06
2.63103e-07
-3.65217e-06
-4.75849e-07
-3.54303e-06
-1.25628e-06
-3.41727e-06
-2.15408e-06
-3.23372e-06
-3.26554e-06
-2.90685e-06
-4.6745e-06
-2.29609e-06
-6.37165e-06
-1.29388e-06
-7.90111e-06
-7.77681e-06
-4.33388e-07
3.10666e-06
-9.95436e-07
4.17423e-06
-1.51255e-06
4.45658e-06
-1.95668e-06
4.51861e-06
-2.31942e-06
4.39787e-06
-2.59654e-06
4.10131e-06
-2.78679e-06
3.64708e-06
-2.89228e-06
3.06369e-06
-2.91946e-06
2.38651e-06
-2.88086e-06
1.65399e-06
-2.79696e-06
9.03135e-07
-2.69797e-06
1.64116e-07
-2.60821e-06
-5.65606e-07
-2.54382e-06
-1.32068e-06
-2.50809e-06
-2.18981e-06
-2.47274e-06
-3.30089e-06
-2.35133e-06
-4.7959e-06
-1.96527e-06
-6.75772e-06
-1.16244e-06
-8.70394e-06
-8.93925e-06
-2.6148e-07
3.36814e-06
-6.79821e-07
4.59258e-06
-1.07333e-06
4.85008e-06
-1.40722e-06
4.85251e-06
-1.67307e-06
4.66372e-06
-1.86788e-06
4.29611e-06
-1.99178e-06
3.77098e-06
-2.04773e-06
3.11965e-06
-2.04206e-06
2.38084e-06
-1.98588e-06
1.59781e-06
-1.89669e-06
8.13939e-07
-1.80064e-06
6.80655e-08
-1.71796e-06
-6.48279e-07
-1.66852e-06
-1.37013e-06
-1.67659e-06
-2.18173e-06
-1.74283e-06
-3.23465e-06
-1.79698e-06
-4.74176e-06
-1.62302e-06
-6.93169e-06
-1.02191e-06
-9.30505e-06
-9.96116e-06
-9.8055e-08
3.4662e-06
-3.66399e-07
4.86092e-06
-6.38002e-07
5.12169e-06
-8.66522e-07
5.08103e-06
-1.04376e-06
4.84095e-06
-1.16849e-06
4.42085e-06
-1.24296e-06
3.84544e-06
-1.27184e-06
3.14853e-06
-1.26196e-06
2.37097e-06
-1.22209e-06
1.55794e-06
-1.16274e-06
7.54589e-07
-1.08981e-06
-4.86846e-09
-1.02198e-06
-7.16107e-07
-9.73342e-07
-1.41877e-06
-9.85132e-07
-2.16994e-06
-1.09704e-06
-3.12274e-06
-1.2818e-06
-4.557e-06
-1.29411e-06
-6.91937e-06
-8.85201e-07
-9.71396e-06
-1.08464e-05
4.48615e-08
3.42134e-06
-7.45672e-08
4.98035e-06
-2.25975e-07
5.27309e-06
-3.54087e-07
5.20914e-06
-4.4783e-07
4.9347e-06
-5.07917e-07
4.48094e-06
-5.39265e-07
3.87679e-06
-5.49112e-07
3.15838e-06
-5.46021e-07
2.36788e-06
-5.37608e-07
1.54953e-06
-5.25631e-07
7.42612e-07
-4.98019e-07
-3.24804e-08
-4.64636e-07
-7.4949e-07
-4.32538e-07
-1.45086e-06
-4.48278e-07
-2.1542e-06
-5.62181e-07
-3.00884e-06
-8.28663e-07
-4.29052e-06
-9.95185e-07
-6.75285e-06
-7.59988e-07
-9.94915e-06
-1.16063e-05
1.5989e-07
3.26145e-06
1.84065e-07
4.95617e-06
1.49085e-07
5.30807e-06
1.17627e-07
5.2406e-06
1.05774e-07
4.94655e-06
1.11491e-07
4.47522e-06
1.26993e-07
3.86128e-06
1.42199e-07
3.14317e-06
1.46918e-07
2.36316e-06
1.33235e-07
1.56321e-06
1.0162e-07
7.74227e-07
6.93924e-08
-2.53012e-10
5.52113e-08
-7.35309e-07
3.13092e-08
-1.42696e-06
3.69466e-10
-2.12326e-06
-1.45274e-07
-2.86319e-06
-4.41073e-07
-3.99472e-06
-7.30767e-07
-6.46316e-06
-6.47715e-07
-1.00322e-05
-1.22541e-05
2.51693e-07
3.00975e-06
3.98452e-07
4.80941e-06
4.75254e-07
5.23127e-06
5.41421e-07
5.17443e-06
6.14873e-07
4.8731e-06
6.91675e-07
4.39842e-06
7.60753e-07
3.79221e-06
8.09772e-07
3.09415e-06
8.28424e-07
2.3445e-06
8.1181e-07
1.57983e-06
7.62703e-07
8.23333e-07
6.80933e-07
8.15173e-08
5.88812e-07
-6.43188e-07
4.90262e-07
-1.32841e-06
3.68209e-07
-2.00121e-06
1.95744e-07
-2.69073e-06
-9.65434e-08
-3.70243e-06
-4.93678e-07
-6.06602e-06
-5.44955e-07
-9.98093e-06
-1.2799e-05
3.16928e-07
2.69283e-06
5.63033e-07
4.56331e-06
7.42297e-07
5.05201e-06
9.04464e-07
5.01226e-06
1.06523e-06
4.71234e-06
1.21784e-06
4.2458e-06
1.34805e-06
3.662e-06
1.44148e-06
3.00073e-06
1.48749e-06
2.29849e-06
1.48147e-06
1.58585e-06
1.42319e-06
8.81614e-07
1.3121e-06
1.92601e-07
1.15615e-06
-4.87235e-07
9.68434e-07
-1.1407e-06
7.4861e-07
-1.78138e-06
4.96875e-07
-2.43899e-06
1.78784e-07
-3.38434e-06
-2.73068e-07
-5.61417e-06
-4.46534e-07
-9.80746e-06
-1.32455e-05
3.48442e-07
2.34438e-06
6.66532e-07
4.24522e-06
9.38583e-07
4.77996e-06
1.19735e-06
4.75349e-06
1.44999e-06
4.45969e-06
1.68461e-06
4.01119e-06
1.88342e-06
3.46318e-06
2.03018e-06
2.85398e-06
2.11351e-06
2.21516e-06
2.12778e-06
1.57158e-06
2.07044e-06
9.38955e-07
1.93819e-06
3.24854e-07
1.73277e-06
-2.81816e-07
1.46905e-06
-8.76971e-07
1.15323e-06
-1.46557e-06
7.9479e-07
-2.08056e-06
4.06895e-07
-2.99645e-06
-7.70035e-08
-5.13027e-06
-3.36417e-07
-9.54805e-06
-1.3582e-05
3.31567e-07
2.01282e-06
6.90879e-07
3.88591e-06
1.04817e-06
4.42267e-06
1.40824e-06
4.39342e-06
1.76115e-06
4.10679e-06
2.08628e-06
3.68606e-06
2.3619e-06
3.18756e-06
2.57022e-06
2.64565e-06
2.6993e-06
2.08608e-06
2.74256e-06
1.52832e-06
2.6959e-06
9.85614e-07
2.55461e-06
4.66144e-07
2.31278e-06
-3.99836e-08
1.99043e-06
-5.54627e-07
1.59092e-06
-1.06605e-06
1.1297e-06
-1.61934e-06
6.46751e-07
-2.5135e-06
1.746e-07
-4.65812e-06
-1.43806e-07
-9.22964e-06
-1.37258e-05
2.32006e-07
1.78081e-06
6.10844e-07
3.50707e-06
1.05345e-06
3.98006e-06
1.52708e-06
3.91979e-06
1.99353e-06
3.64034e-06
2.42009e-06
3.25949e-06
2.78132e-06
2.82633e-06
3.05888e-06
2.36809e-06
3.24106e-06
1.9039e-06
3.32148e-06
1.4479e-06
3.29706e-06
1.01004e-06
3.16621e-06
5.96992e-07
2.91934e-06
2.06883e-07
2.55281e-06
-1.88092e-07
2.08596e-06
-5.992e-07
1.53498e-06
-1.06837e-06
9.69847e-07
-1.94836e-06
5.31359e-07
-4.21963e-06
1.41045e-07
-8.83933e-06
-1.35847e-05
5.07528e-09
1.77573e-06
3.92354e-07
3.11979e-06
9.41424e-07
3.43099e-06
1.55313e-06
3.30809e-06
2.1507e-06
3.04277e-06
2.69053e-06
2.71966e-06
3.14584e-06
2.37102e-06
3.4996e-06
2.01433e-06
3.74182e-06
1.66168e-06
3.86764e-06
1.32208e-06
3.87548e-06
1.0022e-06
3.76583e-06
7.0665e-07
3.53648e-06
4.36227e-07
3.1732e-06
1.75187e-07
2.67914e-06
-1.05133e-07
2.09091e-06
-4.80136e-07
1.5231e-06
-1.38056e-06
1.10413e-06
-3.80066e-06
5.2795e-07
-8.26315e-06
-1.30568e-05
-4.62454e-07
2.23819e-06
-2.34232e-09
2.65968e-06
7.32502e-07
2.69614e-06
1.52157e-06
2.51903e-06
2.27126e-06
2.29308e-06
2.93736e-06
2.05356e-06
3.4976e-06
1.81077e-06
3.93937e-06
1.57256e-06
4.25673e-06
1.34432e-06
4.44861e-06
1.1302e-06
4.51713e-06
9.33682e-07
4.46644e-06
7.57335e-07
4.30034e-06
6.02332e-07
4.01013e-06
4.65395e-07
3.59168e-06
3.13318e-07
3.17384e-06
-6.23014e-08
2.81109e-06
-1.0178e-06
2.32636e-06
-3.31593e-06
1.30046e-06
-7.23724e-06
-1.17563e-05
-9.46009e-07
3.1842e-06
-2.79717e-07
1.99339e-06
8.03509e-07
1.61292e-06
1.85197e-06
1.47057e-06
2.80076e-06
1.34429e-06
3.64028e-06
1.21404e-06
4.36028e-06
1.09078e-06
4.95619e-06
9.76659e-07
5.42949e-06
8.7101e-07
5.78575e-06
7.7394e-07
6.03348e-06
6.85958e-07
6.18376e-06
6.07048e-07
6.25134e-06
5.34754e-07
6.26218e-06
4.54558e-07
6.27029e-06
3.05204e-07
6.25085e-06
-4.28626e-08
6.21372e-06
-9.80667e-07
5.41775e-06
-2.51997e-06
3.22294e-06
-5.04243e-06
-8.53337e-06
3.1842e-06
5.17758e-06
6.7905e-06
8.26107e-06
9.60536e-06
1.08194e-05
1.19102e-05
1.28868e-05
1.37578e-05
1.45318e-05
1.52177e-05
1.58248e-05
1.63595e-05
1.68141e-05
1.71193e-05
1.70764e-05
1.60958e-05
1.35758e-05
8.53337e-06
)
;

boundaryField
{
    movingWall
    {
        type            calculated;
        value           uniform 0;
    }
    fixedWalls
    {
        type            calculated;
        value           uniform 0;
    }
    frontAndBack
    {
        type            empty;
        value           nonuniform List<scalar> 0();
    }
}


// ************************************************************************* //
