/*--------------------------------*- C++ -*----------------------------------*\
  =========                 |
  \\      /  F ield         | OpenFOAM: The Open Source CFD Toolbox
   \\    /   O peration     | Website:  https://openfoam.org
    \\  /    A nd           | Version:  8
     \\/     M anipulation  |
\*---------------------------------------------------------------------------*/
FoamFile
{
    version     2.0;
    format      ascii;
    class       volVectorField;
    location    "4";
    object      U;
}
// * * * * * * * * * * * * * * * * * * * * * * * * * * * * * * * * * * * * * //

dimensions      [0 1 -1 0 0 0 0];

internalField   nonuniform List<vector> 
400
(
(0.00277938 -0.00352763 0)
(0.00566979 -0.00330117 0)
(0.00401418 -0.00124827 0)
(-0.00403913 0.0026388 0)
(-0.0159504 0.00543953 0)
(-0.0306746 0.00727877 0)
(-0.0465508 0.00826889 0)
(-0.0624856 0.00856551 0)
(-0.0775716 0.00832178 0)
(-0.0910489 0.00765129 0)
(-0.102267 0.00662294 0)
(-0.110614 0.00524767 0)
(-0.115442 0.00345691 0)
(-0.116061 0.0010767 0)
(-0.111515 -0.00216229 0)
(-0.100679 -0.00604877 0)
(-0.0831239 -0.010244 0)
(-0.0594409 -0.0139086 0)
(-0.0322135 -0.014677 0)
(-0.00737596 -0.00691498 0)
(-0.000436742 -0.00546247 0)
(-0.00874346 0.00280176 0)
(-0.0213081 0.0118766 0)
(-0.0364482 0.018203 0)
(-0.0531034 0.0221351 0)
(-0.0703237 0.024162 0)
(-0.0871832 0.0245194 0)
(-0.102868 0.0234346 0)
(-0.116643 0.0211181 0)
(-0.127874 0.0177498 0)
(-0.136023 0.013462 0)
(-0.140595 0.00830633 0)
(-0.141066 0.00220982 0)
(-0.136872 -0.00503771 0)
(-0.127963 -0.0133217 0)
(-0.114079 -0.0225272 0)
(-0.0947233 -0.0322267 0)
(-0.0700403 -0.0408364 0)
(-0.0417757 -0.0437544 0)
(-0.013456 -0.0297589 0)
(-0.00541429 0.00552808 0)
(-0.0201263 0.0179647 0)
(-0.0358393 0.0274687 0)
(-0.0521499 0.03426 0)
(-0.0683897 0.0383757 0)
(-0.083951 0.0399541 0)
(-0.0982383 0.0391882 0)
(-0.110713 0.0363379 0)
(-0.120912 0.0316844 0)
(-0.128476 0.0254929 0)
(-0.133162 0.0179736 0)
(-0.134817 0.00923943 0)
(-0.133264 -0.000721436 0)
(-0.12839 -0.0119319 0)
(-0.120342 -0.024319 0)
(-0.108429 -0.0381056 0)
(-0.09188 -0.0529685 0)
(-0.0701594 -0.0669099 0)
(-0.0441339 -0.0738141 0)
(-0.0157341 -0.0582159 0)
(-0.00709398 0.0199469 0)
(-0.0237237 0.0342488 0)
(-0.0400591 0.0435438 0)
(-0.0557183 0.0498737 0)
(-0.0702952 0.0531858 0)
(-0.0834681 0.0535053 0)
(-0.0948932 0.0510268 0)
(-0.104275 0.0460705 0)
(-0.111403 0.0390146 0)
(-0.116176 0.0302334 0)
(-0.118616 0.0200369 0)
(-0.118816 0.00861932 0)
(-0.116764 -0.00395835 0)
(-0.112793 -0.0176845 0)
(-0.106624 -0.033008 0)
(-0.0976103 -0.0504831 0)
(-0.0847052 -0.0700186 0)
(-0.0666803 -0.0895773 0)
(-0.0437393 -0.101954 0)
(-0.0158693 -0.0877234 0)
(-0.00659854 0.0345924 0)
(-0.0226773 0.0505659 0)
(-0.0380019 0.0589252 0)
(-0.0520845 0.0640358 0)
(-0.0645916 0.0658912 0)
(-0.0753443 0.0644899 0)
(-0.084161 0.0600621 0)
(-0.0909174 0.0530016 0)
(-0.095577 0.0437838 0)
(-0.098218 0.0328852 0)
(-0.0990463 0.0207054 0)
(-0.0983309 0.00750477 0)
(-0.0962208 -0.00663751 0)
(-0.0933028 -0.0218891 0)
(-0.089199 -0.0391204 0)
(-0.08333 -0.0593502 0)
(-0.0744298 -0.0829833 0)
(-0.0605225 -0.108337 0)
(-0.0415475 -0.127336 0)
(-0.014802 -0.116518 0)
(-0.00503286 0.0477646 0)
(-0.019186 0.0655412 0)
(-0.0325618 0.0727071 0)
(-0.0445679 0.0762479 0)
(-0.0548683 0.0763648 0)
(-0.0633433 0.073085 0)
(-0.0698932 0.0666878 0)
(-0.0744835 0.0576424 0)
(-0.0771658 0.0465218 0)
(-0.0781104 0.0339122 0)
(-0.0776303 0.0203226 0)
(-0.0761378 0.00609824 0)
(-0.0740153 -0.00869385 0)
(-0.0720527 -0.0244731 0)
(-0.0698351 -0.0425566 0)
(-0.0669662 -0.064536 0)
(-0.0621471 -0.0915557 0)
(-0.0524871 -0.122727 0)
(-0.0382542 -0.14925 0)
(-0.013054 -0.143517 0)
(-0.00305961 0.0582237 0)
(-0.0145655 0.078236 0)
(-0.0255174 0.0843169 0)
(-0.0352296 0.0862847 0)
(-0.0433439 0.0846714 0)
(-0.0497662 0.0795719 0)
(-0.0544339 0.071323 0)
(-0.0573491 0.0604676 0)
(-0.0585898 0.0476765 0)
(-0.0583446 0.0336641 0)
(-0.0569518 0.0190893 0)
(-0.0549019 0.00441644 0)
(-0.0528049 -0.0103179 0)
(-0.0514486 -0.025803 0)
(-0.0505457 -0.0437323 0)
(-0.0500469 -0.0663395 0)
(-0.049056 -0.0957799 0)
(-0.0433907 -0.132547 0)
(-0.0344573 -0.167242 0)
(-0.0109467 -0.168048 0)
(-0.00104535 0.0653369 0)
(-0.00955831 0.088167 0)
(-0.0179061 0.0934967 0)
(-0.0252928 0.0940993 0)
(-0.0313321 0.0909581 0)
(-0.0359542 0.0842619 0)
(-0.0391255 0.0744079 0)
(-0.0408729 0.0620014 0)
(-0.0412819 0.0477957 0)
(-0.0405227 0.032624 0)
(-0.0388818 0.0173013 0)
(-0.036788 0.00243437 0)
(-0.0348726 -0.0119087 0)
(-0.0336794 -0.0266534 0)
(-0.0333029 -0.0435899 0)
(-0.0340539 -0.0655862 0)
(-0.0363123 -0.096106 0)
(-0.0339963 -0.137927 0)
(-0.0306379 -0.181158 0)
(-0.00867724 -0.189802 0)
(0.000743379 0.0689627 0)
(-0.0046266 0.0951776 0)
(-0.0103247 0.100203 0)
(-0.0154545 0.0997523 0)
(-0.0195495 0.0953964 0)
(-0.0225776 0.0874429 0)
(-0.0245447 0.076351 0)
(-0.0255178 0.0627763 0)
(-0.025606 0.0475243 0)
(-0.0249685 0.031498 0)
(-0.0238094 0.0156034 0)
(-0.0223136 0.000531998 0)
(-0.0208743 -0.0135728 0)
(-0.0197064 -0.0277008 0)
(-0.019399 -0.0432492 0)
(-0.0201114 -0.0634985 0)
(-0.0248265 -0.0933695 0)
(-0.0249136 -0.139309 0)
(-0.0271497 -0.191112 0)
(-0.00636972 -0.208766 0)
(0.00207843 0.0694194 0)
(-0.000100697 0.0991458 0)
(-0.00314425 0.104523 0)
(-0.00611501 0.103362 0)
(-0.00836508 0.0981373 0)
(-0.00990503 0.0893187 0)
(-0.010786 0.0774309 0)
(-0.0111312 0.0631658 0)
(-0.0110926 0.0473475 0)
(-0.0108427 0.0308741 0)
(-0.0105429 0.0146292 0)
(-0.0100471 -0.00069343 0)
(-0.00949897 -0.0149297 0)
(-0.00866919 -0.0288442 0)
(-0.00879235 -0.0432324 0)
(-0.00871626 -0.0611551 0)
(-0.0151029 -0.0886453 0)
(-0.0165122 -0.137345 0)
(-0.024186 -0.197419 0)
(-0.00408261 -0.225123 0)
(0.00299967 0.067406 0)
(0.00374103 0.100057 0)
(0.00331102 0.106424 0)
(0.00245579 0.105031 0)
(0.00200602 0.0992882 0)
(0.00196082 0.0899669 0)
(0.00221749 0.0776914 0)
(0.00258867 0.0632071 0)
(0.00287394 0.0473643 0)
(0.00289367 0.0310331 0)
(0.00255034 0.0149084 0)
(0.00170807 -0.00074194 0)
(0.00128002 -0.015351 0)
(0.00119662 -0.0291982 0)
(-0.000118481 -0.0430253 0)
(0.000274081 -0.0587372 0)
(-0.00722574 -0.0829404 0)
(-0.00888197 -0.132699 0)
(-0.0217634 -0.200471 0)
(-0.00180168 -0.239136 0)
(0.0036138 0.0632352 0)
(0.00686239 0.0982898 0)
(0.00879829 0.105981 0)
(0.0100197 0.10467 0)
(0.0113804 0.0986604 0)
(0.0128985 0.0891415 0)
(0.0144104 0.0768688 0)
(0.0156678 0.0626264 0)
(0.016435 0.0472492 0)
(0.0165424 0.0315311 0)
(0.0159547 0.0160055 0)
(0.014811 0.000727642 0)
(0.0128985 -0.0140154 0)
(0.011111 -0.0279172 0)
(0.00837065 -0.0416251 0)
(0.00748892 -0.0556938 0)
(-0.00100896 -0.0766707 0)
(-0.00186649 -0.125817 0)
(-0.0197347 -0.200639 0)
(0.000554354 -0.251062 0)
(0.00392383 0.0574249 0)
(0.0091898 0.094253 0)
(0.0131655 0.103377 0)
(0.0163836 0.102382 0)
(0.0195766 0.0963299 0)
(0.0227366 0.0868723 0)
(0.0256277 0.0749182 0)
(0.0279436 0.0612669 0)
(0.02942 0.0466924 0)
(0.0298873 0.0318681 0)
(0.0293085 0.0172003 0)
(0.0278755 0.00274349 0)
(0.025007 -0.0113867 0)
(0.0216186 -0.0249078 0)
(0.0172167 -0.038155 0)
(0.014059 -0.051671 0)
(0.00395427 -0.0709533 0)
(0.00466903 -0.11682 0)
(-0.0178552 -0.198353 0)
(0.00314295 -0.261066 0)
(0.00384534 0.0505909 0)
(0.0105332 0.0884486 0)
(0.0161755 0.098803 0)
(0.02131 0.0981806 0)
(0.0263982 0.0922357 0)
(0.0313121 0.0830531 0)
(0.0357202 0.0716883 0)
(0.0392596 0.05893 0)
(0.0416403 0.0454636 0)
(0.042683 0.0318423 0)
(0.04232 0.0184048 0)
(0.0406945 0.00526709 0)
(0.0371399 -0.00769419 0)
(0.0324739 -0.0202874 0)
(0.0265162 -0.0326922 0)
(0.0209553 -0.0455017 0)
(0.0084606 -0.0641094 0)
(0.0106729 -0.107019 0)
(-0.015772 -0.194201 0)
(0.00631753 -0.269075 0)
(0.0031653 0.0435228 0)
(0.0105367 0.0814438 0)
(0.0174782 0.0924463 0)
(0.0245157 0.0920196 0)
(0.0316444 0.0862428 0)
(0.0384881 0.0775245 0)
(0.0445832 0.0670087 0)
(0.049513 0.0554371 0)
(0.0529696 0.0433893 0)
(0.0547641 0.0313092 0)
(0.0548014 0.0194879 0)
(0.0531691 0.00807539 0)
(0.0491994 -0.00325965 0)
(0.043592 -0.0143777 0)
(0.0363332 -0.0254373 0)
(0.0284847 -0.0371799 0)
(0.0138978 -0.0553094 0)
(0.0161088 -0.0976872 0)
(-0.0127921 -0.188399 0)
(0.0108246 -0.274671 0)
(0.0013248 0.0374294 0)
(0.00852904 0.0738606 0)
(0.016629 0.0844302 0)
(0.0257308 0.0837598 0)
(0.0351684 0.0781456 0)
(0.0441909 0.0700937 0)
(0.0521739 0.0607107 0)
(0.0586603 0.0506356 0)
(0.063344 0.0403259 0)
(0.066044 0.0301202 0)
(0.0666675 0.0202536 0)
(0.0652157 0.0108803 0)
(0.0616504 0.00187387 0)
(0.0553463 -0.00732529 0)
(0.0470556 -0.0166589 0)
(0.0371212 -0.0270443 0)
(0.0213364 -0.0448354 0)
(0.0221835 -0.0893069 0)
(-0.00741191 -0.182433 0)
(0.0176143 -0.277074 0)
(-0.0027344 0.0337745 0)
(0.00316593 0.0666179 0)
(0.0132333 0.0747616 0)
(0.0248547 0.0731168 0)
(0.0370106 0.0676461 0)
(0.0485088 0.0605105 0)
(0.0585835 0.0525812 0)
(0.0667794 0.0443252 0)
(0.0728263 0.0360607 0)
(0.0765782 0.0280206 0)
(0.0779725 0.0203721 0)
(0.0770075 0.013228 0)
(0.0737677 0.00658223 0)
(0.0679084 -5.87445e-05 0)
(0.0591558 -0.00747533 0)
(0.0478441 -0.0161219 0)
(0.0325405 -0.0335964 0)
(0.0324063 -0.0819164 0)
(0.00290739 -0.175567 0)
(0.0280621 -0.273645 0)
(-0.00887458 0.0397834 0)
(-0.00727226 0.0584757 0)
(0.00729383 0.0629624 0)
(0.0224694 0.0598471 0)
(0.0379214 0.054745 0)
(0.0522278 0.0489353 0)
(0.0646272 0.0428818 0)
(0.074752 0.0368289 0)
(0.0824225 0.030944 0)
(0.0875728 0.0253583 0)
(0.0902156 0.0201752 0)
(0.0904156 0.0154717 0)
(0.0882642 0.0112876 0)
(0.083802 0.00755666 0)
(0.0767616 0.00399512 0)
(0.0658096 -0.00120224 0)
(0.0557626 -0.021969 0)
(0.0561193 -0.0743661 0)
(0.0254069 -0.160787 0)
(0.0460707 -0.253919 0)
(-0.0149425 0.0563283 0)
(-0.0173901 0.0444903 0)
(0.00554568 0.0404682 0)
(0.0267232 0.0382092 0)
(0.0465517 0.0352296 0)
(0.0645817 0.0318196 0)
(0.0803105 0.0283775 0)
(0.0935591 0.0250617 0)
(0.104306 0.0219305 0)
(0.112629 0.0190278 0)
(0.118672 0.0163924 0)
(0.122634 0.0140457 0)
(0.124774 0.0119581 0)
(0.125463 0.00987432 0)
(0.125057 0.0064756 0)
(0.120841 -0.00319181 0)
(0.122747 -0.0254125 0)
(0.12109 -0.0646087 0)
(0.0828505 -0.125782 0)
(0.0832976 -0.19977 0)
(0.0660065 0.0568842 0)
(0.0811773 0.0408785 0)
(0.117896 0.0306882 0)
(0.15079 0.0253487 0)
(0.179226 0.0219652 0)
(0.2047 0.0194074 0)
(0.227718 0.0173474 0)
(0.248404 0.0156391 0)
(0.266882 0.0141882 0)
(0.283319 0.0129356 0)
(0.297894 0.0118441 0)
(0.31079 0.010885 0)
(0.322144 0.010019 0)
(0.33188 0.0091145 0)
(0.339384 0.00758037 0)
(0.343665 0.00358418 0)
(0.335261 -0.0043091 0)
(0.304509 -0.0191878 0)
(0.231017 -0.0490508 0)
(0.167645 -0.105115 0)
)
;

boundaryField
{
    movingWall
    {
        type            fixedValue;
        value           uniform (1 0 0);
    }
    fixedWalls
    {
        type            noSlip;
    }
    frontAndBack
    {
        type            empty;
    }
}


// ************************************************************************* //
