/*--------------------------------*- C++ -*----------------------------------*\
  =========                 |
  \\      /  F ield         | OpenFOAM: The Open Source CFD Toolbox
   \\    /   O peration     | Website:  https://openfoam.org
    \\  /    A nd           | Version:  8
     \\/     M anipulation  |
\*---------------------------------------------------------------------------*/
FoamFile
{
    version     2.0;
    format      ascii;
    class       volScalarField;
    location    "5";
    object      p;
}
// * * * * * * * * * * * * * * * * * * * * * * * * * * * * * * * * * * * * * //

dimensions      [0 2 -2 0 0 0 0];

internalField   nonuniform List<scalar> 
400
(
2.43059e-08
-0.000172983
-0.000374525
-0.000609556
-0.000965953
-0.00145315
-0.00206249
-0.00273389
-0.00336862
-0.00384621
-0.00403823
-0.00381571
-0.00306058
-0.00169816
0.000270564
0.00273255
0.00535044
0.00750556
0.00854449
0.00837781
0.000164259
1.78011e-05
-0.000243325
-0.000553798
-0.000969595
-0.00152966
-0.00222153
-0.00297944
-0.00369951
-0.00425902
-0.00453343
-0.00440421
-0.0037662
-0.00257404
-0.0007626
0.00155464
0.00407778
0.00627081
0.00749645
0.00758774
0.000475737
0.000212722
-0.000149642
-0.000619192
-0.00123366
-0.00200132
-0.00288736
-0.00381249
-0.00466747
-0.00533302
-0.00569881
-0.00567247
-0.00517013
-0.00409541
-0.00245411
-0.000320509
0.00209594
0.00436175
0.00583066
0.00617615
0.000564661
0.000222002
-0.000300278
-0.00098643
-0.00184309
-0.00284467
-0.00393031
-0.00500878
-0.00597227
-0.00671487
-0.00714879
-0.00720426
-0.00680983
-0.00590832
-0.00449662
-0.00260428
-0.000350073
0.00194175
0.0036115
0.00419819
0.000259531
-0.000139484
-0.000795526
-0.00166741
-0.00272522
-0.00391202
-0.00514634
-0.00632909
-0.00735733
-0.00814068
-0.00861304
-0.00872638
-0.00843213
-0.00770748
-0.00655172
-0.00495119
-0.00293933
-0.000719816
0.00104435
0.00183849
-0.000436577
-0.000857312
-0.00158991
-0.00257572
-0.00375783
-0.00505473
-0.0063689
-0.00759595
-0.00863845
-0.00941977
-0.00989177
-0.0100278
-0.00981049
-0.0092506
-0.00835123
-0.00706988
-0.0053738
-0.00333312
-0.00160125
-0.000653294
-0.00137665
-0.00178971
-0.00254616
-0.00357702
-0.00480867
-0.00614331
-0.00747251
-0.00868876
-0.00969954
-0.0104395
-0.0108759
-0.0110041
-0.0108375
-0.0104123
-0.00973958
-0.00876706
-0.00742705
-0.0056505
-0.00407058
-0.0030267
-0.00237605
-0.00276525
-0.0035104
-0.0045359
-0.0057605
-0.00707821
-0.00837531
-0.00954338
-0.0104941
-0.011171
-0.0115547
-0.0116596
-0.0115202
-0.0111902
-0.0106897
-0.00997362
-0.00898041
-0.00750998
-0.00616749
-0.00508268
-0.00329178
-0.00364204
-0.0043567
-0.00534492
-0.00652642
-0.00779412
-0.00903432
-0.0101399
-0.0110258
-0.0116419
-0.0119769
-0.0120502
-0.0119281
-0.0116553
-0.0112627
-0.0107223
-0.010022
-0.00884787
-0.00777919
-0.00669232
-0.00403714
-0.00432969
-0.00500139
-0.00593293
-0.00705122
-0.00825332
-0.0094303
-0.0104783
-0.0113142
-0.0118893
-0.0121962
-0.0122607
-0.0121424
-0.0118854
-0.011542
-0.0110852
-0.0106125
-0.00967783
-0.00887104
-0.0077904
-0.00455995
-0.00480083
-0.00540759
-0.00626728
-0.00730956
-0.00844082
-0.00955908
-0.0105636
-0.0113714
-0.0119305
-0.0122296
-0.0122965
-0.0121766
-0.0119107
-0.0115809
-0.0111165
-0.0108263
-0.0100456
-0.00945362
-0.00835271
-0.00485664
-0.00505338
-0.00558326
-0.00635724
-0.00731369
-0.00837138
-0.00943532
-0.0104069
-0.0112013
-0.0117614
-0.0120675
-0.0121396
-0.0120132
-0.0117367
-0.0113733
-0.0109036
-0.0106754
-0.00997552
-0.0095643
-0.00837259
-0.00496558
-0.00511523
-0.00555204
-0.00622427
-0.00708617
-0.00806861
-0.00908189
-0.0100276
-0.010817
-0.011387
-0.011708
-0.0117824
-0.0116513
-0.0113614
-0.0109609
-0.0104631
-0.0101989
-0.00947437
-0.00929463
-0.00782618
-0.00494035
-0.00503185
-0.00534585
-0.00589043
-0.00664575
-0.00755273
-0.00852237
-0.00945248
-0.010248
-0.0108373
-0.0111802
-0.0112665
-0.0111347
-0.0108275
-0.0103845
-0.0098422
-0.00949539
-0.00855024
-0.0087565
-0.00660547
-0.00483724
-0.00484892
-0.00499533
-0.00537822
-0.00601418
-0.00685008
-0.00778982
-0.00872138
-0.00953974
-0.0101632
-0.010541
-0.0106523
-0.0105284
-0.010202
-0.00971183
-0.00910966
-0.00862753
-0.00743533
-0.00779896
-0.00451311
-0.00471375
-0.00459053
-0.00451725
-0.00470715
-0.00521928
-0.00599854
-0.00693085
-0.00788736
-0.00874996
-0.00942605
-0.00985559
-0.01001
-0.00989775
-0.00955937
-0.00903207
-0.00836496
-0.00768614
-0.00623241
-0.00615634
-0.0012999
-0.00463707
-0.00422984
-0.0039064
-0.00389128
-0.0042961
-0.00504933
-0.00600655
-0.00701693
-0.00794794
-0.0086967
-0.00919508
-0.00940843
-0.00933187
-0.0089999
-0.00845259
-0.00771349
-0.00674911
-0.00476805
-0.00315676
0.00472026
-0.00461112
-0.00379299
-0.00316263
-0.00295401
-0.00329457
-0.00406621
-0.00508444
-0.00617616
-0.00719616
-0.00803364
-0.00861476
-0.0089003
-0.00887927
-0.00855957
-0.00795895
-0.00710391
-0.00573569
-0.00238159
0.00315157
0.0180781
-0.0051213
-0.0033474
-0.00237878
-0.00204483
-0.00238892
-0.0032271
-0.00433828
-0.00553064
-0.0066491
-0.00757891
-0.00824497
-0.00860763
-0.00865732
-0.0084121
-0.00792594
-0.00717841
-0.00455918
0.00230871
0.0153922
0.041856
-0.00823709
-0.00211906
-0.00050574
-0.000540469
-0.00115469
-0.00216789
-0.00344015
-0.00478326
-0.00603388
-0.00707681
-0.00783888
-0.00828018
-0.00838131
-0.00809736
-0.00715951
-0.00461763
0.000809367
0.0121633
0.0322575
0.0656931
)
;

boundaryField
{
    movingWall
    {
        type            zeroGradient;
    }
    fixedWalls
    {
        type            zeroGradient;
    }
    frontAndBack
    {
        type            empty;
    }
}


// ************************************************************************* //
