/*--------------------------------*- C++ -*----------------------------------*\
  =========                 |
  \\      /  F ield         | OpenFOAM: The Open Source CFD Toolbox
   \\    /   O peration     | Website:  https://openfoam.org
    \\  /    A nd           | Version:  8
     \\/     M anipulation  |
\*---------------------------------------------------------------------------*/
FoamFile
{
    version     2.0;
    format      ascii;
    class       surfaceScalarField;
    location    "5";
    object      phi;
}
// * * * * * * * * * * * * * * * * * * * * * * * * * * * * * * * * * * * * * //

dimensions      [0 3 -1 0 0 0 0];

internalField   nonuniform List<scalar> 
760
(
2.40838e-07
-2.4084e-07
2.48512e-07
-7.67491e-09
-2.48542e-08
2.73367e-07
-5.59371e-07
5.34517e-07
-1.25663e-06
6.97261e-07
-2.04351e-06
7.86876e-07
-2.85817e-06
8.14659e-07
-3.64887e-06
7.90705e-07
-4.37277e-06
7.23894e-07
-4.99405e-06
6.2128e-07
-5.48185e-06
4.87804e-07
-5.8068e-06
3.24947e-07
-5.93662e-06
1.29823e-07
-5.83083e-06
-1.05794e-07
-5.44509e-06
-3.85735e-07
-4.73945e-06
-7.05646e-07
-3.69448e-06
-1.04496e-06
-2.34805e-06
-1.34643e-06
-9.08684e-07
-1.43937e-06
-9.08684e-07
-2.48059e-07
7.21927e-09
-7.93404e-07
5.3767e-07
-1.53538e-06
1.01534e-06
-2.35357e-06
1.35271e-06
-3.21829e-06
1.56198e-06
-4.08567e-06
1.65425e-06
-4.91157e-06
1.64056e-06
-5.65603e-06
1.53516e-06
-6.28408e-06
1.35195e-06
-6.76593e-06
1.10313e-06
-7.07621e-06
7.98078e-07
-7.19258e-06
4.41325e-07
-7.08018e-06
1.74214e-08
-6.74776e-06
-4.38213e-07
-6.17426e-06
-9.5924e-07
-5.34305e-06
-1.53686e-06
-4.23319e-06
-2.15482e-06
-2.85488e-06
-2.72474e-06
-1.31781e-06
-2.97644e-06
-2.2265e-06
-6.53088e-07
6.60308e-07
-1.467e-06
1.35158e-06
-2.29661e-06
1.84495e-06
-3.12869e-06
2.18478e-06
-3.9376e-06
2.3709e-06
-4.6938e-06
2.41045e-06
-5.36923e-06
2.316e-06
-5.93859e-06
2.10451e-06
-6.38121e-06
1.79456e-06
-6.68193e-06
1.40386e-06
-6.83051e-06
9.46658e-07
-6.81905e-06
4.29861e-07
-6.65444e-06
-1.47189e-07
-6.32355e-06
-7.69101e-07
-5.81908e-06
-1.46371e-06
-5.10773e-06
-2.24821e-06
-4.15016e-06
-3.11239e-06
-2.91993e-06
-3.95497e-06
-1.45637e-06
-4.44001e-06
-3.68287e-06
-7.84011e-07
1.44432e-06
-1.65442e-06
2.222e-06
-2.48017e-06
2.6707e-06
-3.25133e-06
2.95594e-06
-3.95614e-06
3.07571e-06
-4.57833e-06
3.03264e-06
-5.10233e-06
2.83999e-06
-5.51581e-06
2.518e-06
-5.81125e-06
2.09e-06
-5.98631e-06
1.57892e-06
-6.04313e-06
1.00348e-06
-5.98739e-06
3.74123e-07
-5.83103e-06
-3.03554e-07
-5.56877e-06
-1.03136e-06
-5.18327e-06
-1.8492e-06
-4.63632e-06
-2.79517e-06
-3.87093e-06
-3.87777e-06
-2.82164e-06
-5.00425e-06
-1.47112e-06
-5.79053e-06
-5.15398e-06
-7.43296e-07
2.18761e-06
-1.56402e-06
3.04272e-06
-2.32083e-06
3.42751e-06
-2.99872e-06
3.63383e-06
-3.58953e-06
3.66652e-06
-4.08463e-06
3.52774e-06
-4.477e-06
3.23237e-06
-4.76314e-06
2.80413e-06
-4.9443e-06
2.27116e-06
-5.0269e-06
1.66152e-06
-5.02217e-06
9.98756e-07
-4.94557e-06
2.97518e-07
-4.81327e-06
-4.35852e-07
-4.62676e-06
-1.21787e-06
-4.37039e-06
-2.10557e-06
-4.00199e-06
-3.16356e-06
-3.44847e-06
-4.43129e-06
-2.60618e-06
-5.84654e-06
-1.40999e-06
-6.98672e-06
-6.56398e-06
-6.14489e-07
2.8021e-06
-1.32769e-06
3.75592e-06
-1.97919e-06
4.07901e-06
-2.54742e-06
4.20206e-06
-3.02458e-06
4.14367e-06
-3.40534e-06
3.90851e-06
-3.68699e-06
3.51401e-06
-3.8704e-06
2.98754e-06
-3.9612e-06
2.36196e-06
-3.97078e-06
1.67111e-06
-3.91709e-06
9.45061e-07
-3.82454e-06
2.04972e-07
-3.71469e-06
-5.45706e-07
-3.59702e-06
-1.33554e-06
-3.46101e-06
-2.24158e-06
-3.26663e-06
-3.35795e-06
-2.93047e-06
-4.76745e-06
-2.31223e-06
-6.46477e-06
-1.30241e-06
-7.99654e-06
-7.86639e-06
-4.47129e-07
3.24923e-06
-1.02365e-06
4.33244e-06
-1.55255e-06
4.60791e-06
-2.00581e-06
4.65532e-06
-2.37525e-06
4.51311e-06
-2.65689e-06
4.19015e-06
-2.84975e-06
3.70687e-06
-2.95616e-06
3.09395e-06
-2.98284e-06
2.38864e-06
-2.94262e-06
1.63088e-06
-2.8562e-06
8.58642e-07
-2.75424e-06
1.03017e-07
-2.6602e-06
-6.3975e-07
-2.58966e-06
-1.40607e-06
-2.54464e-06
-2.2866e-06
-2.49813e-06
-3.40446e-06
-2.36748e-06
-4.8981e-06
-1.97569e-06
-6.85657e-06
-1.16808e-06
-8.80415e-06
-9.03447e-06
-2.68599e-07
3.51783e-06
-6.96423e-07
4.76027e-06
-1.09777e-06
5.00926e-06
-1.43779e-06
4.99533e-06
-1.70821e-06
4.78353e-06
-1.90619e-06
4.38814e-06
-2.03197e-06
3.83264e-06
-2.08853e-06
3.15051e-06
-2.08225e-06
2.38236e-06
-2.02466e-06
1.57329e-06
-1.93382e-06
7.678e-07
-1.83878e-06
7.97584e-09
-1.75549e-06
-7.23038e-07
-1.70484e-06
-1.45673e-06
-1.70707e-06
-2.28437e-06
-1.76276e-06
-3.34878e-06
-1.80707e-06
-4.85379e-06
-1.6284e-06
-7.03523e-06
-1.02496e-06
-9.40759e-06
-1.00594e-05
-9.90758e-08
3.61691e-06
-3.71866e-07
5.03306e-06
-6.47473e-07
5.28487e-06
-8.79025e-07
5.22688e-06
-1.05851e-06
4.96302e-06
-1.18474e-06
4.51437e-06
-1.25984e-06
3.90775e-06
-1.28823e-06
3.1789e-06
-1.27621e-06
2.37034e-06
-1.23193e-06
1.52901e-06
-1.16767e-06
7.03539e-07
-1.09478e-06
-6.49078e-08
-1.03662e-06
-7.81205e-07
-9.94503e-07
-1.49884e-06
-1.00728e-06
-2.2716e-06
-1.11199e-06
-3.24407e-06
-1.28671e-06
-4.67907e-06
-1.29502e-06
-7.02693e-06
-8.85911e-07
-9.8167e-06
-1.09453e-05
4.90726e-08
3.56783e-06
-6.99101e-08
5.15204e-06
-2.21338e-07
5.4363e-06
-3.49383e-07
5.35493e-06
-4.42934e-07
5.05657e-06
-5.0269e-07
4.57412e-06
-5.33407e-07
3.93846e-06
-5.41966e-07
3.18746e-06
-5.36499e-07
2.36488e-06
-5.24823e-07
1.51734e-06
-5.10222e-07
6.88937e-07
-4.86228e-07
-8.89017e-08
-4.58493e-07
-8.08939e-07
-4.35486e-07
-1.52185e-06
-4.57811e-07
-2.24927e-06
-5.70858e-07
-3.13102e-06
-8.28682e-07
-4.42124e-06
-9.9195e-07
-6.86366e-06
-7.58477e-07
-1.00502e-05
-1.17038e-05
1.68992e-07
3.39884e-06
1.98447e-07
5.12258e-06
1.67079e-07
5.46767e-06
1.38767e-07
5.38324e-06
1.29625e-07
5.06571e-06
1.37523e-07
4.56623e-06
1.54707e-07
3.92128e-06
1.71303e-07
3.17086e-06
1.77246e-07
2.35893e-06
1.64279e-07
1.53031e-06
1.31746e-07
7.2147e-07
9.69286e-08
-5.40846e-08
7.59983e-08
-7.88009e-07
4.52141e-08
-1.49106e-06
4.72837e-09
-2.20879e-06
-1.45797e-07
-2.98049e-06
-4.36132e-07
-4.13091e-06
-7.23433e-07
-6.57636e-06
-6.43935e-07
-1.01297e-05
-1.23478e-05
2.65067e-07
3.13377e-06
4.21479e-07
4.96617e-06
5.05469e-07
5.38368e-06
5.77598e-07
5.31111e-06
6.55983e-07
4.98733e-06
7.36559e-07
4.48565e-06
8.08126e-07
3.84971e-06
8.58175e-07
3.12081e-06
8.75913e-07
2.34119e-06
8.55136e-07
1.55108e-06
7.97183e-07
7.79422e-07
7.1057e-07
3.25291e-08
6.17998e-07
-6.95437e-07
5.14731e-07
-1.3878e-06
3.85261e-07
-2.07932e-06
2.04964e-07
-2.8002e-06
-8.52913e-08
-3.84065e-06
-4.81875e-07
-6.17977e-06
-5.38926e-07
-1.00726e-05
-1.28867e-05
3.34076e-07
2.7997e-06
5.93901e-07
4.70635e-06
7.83698e-07
5.19388e-06
9.54534e-07
5.14028e-06
1.12236e-06
4.8195e-06
1.28022e-06
4.32779e-06
1.41354e-06
3.71638e-06
1.50755e-06
3.02681e-06
1.55106e-06
2.29768e-06
1.53926e-06
1.56288e-06
1.47386e-06
8.44822e-07
1.35651e-06
1.49882e-07
1.1956e-06
-5.34529e-07
1.00323e-06
-1.19542e-06
7.76867e-07
-1.85296e-06
5.16023e-07
-2.53935e-06
1.93392e-07
-3.51802e-06
-2.57311e-07
-5.72907e-06
-4.38825e-07
-9.8911e-06
-1.33255e-05
3.68889e-07
2.43081e-06
7.04343e-07
4.37089e-06
9.90005e-07
4.90822e-06
1.26002e-06
4.87026e-06
1.52177e-06
4.55776e-06
1.76304e-06
4.08651e-06
1.96565e-06
3.51377e-06
2.11287e-06
2.87959e-06
2.19295e-06
2.2176e-06
2.20056e-06
1.55527e-06
2.135e-06
9.10389e-07
1.99541e-06
2.89463e-07
1.78424e-06
-3.23355e-07
1.51538e-06
-9.26562e-07
1.1932e-06
-1.53078e-06
8.25686e-07
-2.17184e-06
4.27373e-07
-3.11971e-06
-6.22106e-08
-5.23949e-06
-3.27096e-07
-9.62622e-06
-1.36526e-05
3.54912e-07
2.0759e-06
7.3439e-07
3.99141e-06
1.1082e-06
4.53441e-06
1.48213e-06
4.49633e-06
1.84628e-06
4.1936e-06
2.17964e-06
3.75315e-06
2.46e-06
3.23341e-06
2.66922e-06
2.67038e-06
2.79521e-06
2.09161e-06
2.83204e-06
1.51844e-06
2.7773e-06
9.65121e-07
2.6281e-06
4.38661e-07
2.38022e-06
-7.54741e-08
2.05148e-06
-5.9782e-07
1.64469e-06
-1.12399e-06
1.17355e-06
-1.7007e-06
6.76502e-07
-2.62266e-06
1.99741e-07
-4.76272e-06
-1.27813e-07
-9.29866e-06
-1.37804e-05
2.58137e-07
1.81776e-06
6.58449e-07
3.5911e-06
1.1203e-06
4.07256e-06
1.61064e-06
4.00599e-06
2.09083e-06
3.71341e-06
2.52753e-06
3.31645e-06
2.8949e-06
2.86604e-06
3.17441e-06
2.39087e-06
3.35454e-06
1.91149e-06
3.4297e-06
1.44328e-06
3.39814e-06
9.96686e-07
3.25928e-06
5.77514e-07
3.00381e-06
1.80001e-07
2.63061e-06
-2.24622e-07
2.15518e-06
-6.48558e-07
1.59241e-06
-1.13793e-06
1.01124e-06
-2.04149e-06
5.56615e-07
-4.3081e-06
1.51905e-07
-8.89395e-06
-1.36285e-05
2.75636e-08
1.7902e-06
4.42364e-07
3.1763e-06
1.01261e-06
3.50232e-06
1.64458e-06
3.37402e-06
2.25896e-06
3.09904e-06
2.81129e-06
2.76412e-06
3.27463e-06
2.4027e-06
3.63202e-06
2.03348e-06
3.8739e-06
1.66961e-06
3.99631e-06
1.32087e-06
3.99891e-06
9.94086e-07
3.88316e-06
6.9326e-07
3.64539e-06
4.17767e-07
3.27153e-06
1.49244e-07
2.7669e-06
-1.43932e-07
2.16477e-06
-5.35794e-07
1.57701e-06
-1.45372e-06
1.13335e-06
-3.86444e-06
5.41039e-07
-8.30164e-06
-1.30875e-05
-4.40366e-07
2.23056e-06
4.18916e-08
2.69404e-06
8.0446e-07
2.73975e-06
1.61864e-06
2.55984e-06
2.38837e-06
2.32931e-06
3.06948e-06
2.08301e-06
3.63983e-06
1.83235e-06
4.08704e-06
1.58627e-06
4.40578e-06
1.35087e-06
4.59587e-06
1.13078e-06
4.66042e-06
9.29528e-07
4.60434e-06
7.49341e-07
4.43145e-06
5.90662e-07
4.13172e-06
4.48974e-07
3.70229e-06
2.855e-07
3.26141e-06
-9.49155e-08
2.87107e-06
-1.06339e-06
2.35779e-06
-3.35116e-06
1.31415e-06
-7.258e-06
-1.17733e-05
-9.41363e-07
3.17193e-06
-2.44529e-07
1.99721e-06
8.69528e-07
1.62569e-06
1.94321e-06
1.48616e-06
2.91311e-06
1.3594e-06
3.7689e-06
1.22722e-06
4.50004e-06
1.10122e-06
5.10223e-06
9.84073e-07
5.57759e-06
8.75509e-07
5.93249e-06
7.75889e-07
6.17621e-06
6.85806e-07
6.32039e-06
6.05158e-07
6.37986e-06
5.3119e-07
6.38022e-06
4.48615e-07
6.37082e-06
2.949e-07
6.33592e-06
-6.0012e-08
6.267e-06
-9.94471e-07
5.44528e-06
-2.52944e-06
3.23501e-06
-5.04773e-06
-8.53832e-06
3.17193e-06
5.16914e-06
6.79483e-06
8.28099e-06
9.64039e-06
1.08676e-05
1.19688e-05
1.29529e-05
1.38284e-05
1.46043e-05
1.52901e-05
1.58953e-05
1.64264e-05
1.68751e-05
1.717e-05
1.711e-05
1.61155e-05
1.3586e-05
8.53832e-06
)
;

boundaryField
{
    movingWall
    {
        type            calculated;
        value           uniform 0;
    }
    fixedWalls
    {
        type            calculated;
        value           uniform 0;
    }
    frontAndBack
    {
        type            empty;
        value           nonuniform List<scalar> 0();
    }
}


// ************************************************************************* //
