/*--------------------------------*- C++ -*----------------------------------*\
  =========                 |
  \\      /  F ield         | OpenFOAM: The Open Source CFD Toolbox
   \\    /   O peration     | Website:  https://openfoam.org
    \\  /    A nd           | Version:  8
     \\/     M anipulation  |
\*---------------------------------------------------------------------------*/
FoamFile
{
    version     2.0;
    format      ascii;
    class       volVectorField;
    location    "5";
    object      U;
}
// * * * * * * * * * * * * * * * * * * * * * * * * * * * * * * * * * * * * * //

dimensions      [0 1 -1 0 0 0 0];

internalField   nonuniform List<vector> 
400
(
(0.0029556 -0.00381518 0)
(0.00598781 -0.00353187 0)
(0.00400211 -0.00111198 0)
(-0.00480446 0.00306806 0)
(-0.0174859 0.00591796 0)
(-0.0328646 0.00770508 0)
(-0.0492644 0.00860995 0)
(-0.0655845 0.00881537 0)
(-0.0809174 0.00848337 0)
(-0.0945114 0.00773101 0)
(-0.105727 0.00662782 0)
(-0.11396 0.0051821 0)
(-0.118568 0.00332158 0)
(-0.118893 0.000876733 0)
(-0.113952 -0.00241985 0)
(-0.102681 -0.00634316 0)
(-0.0846585 -0.0105636 0)
(-0.0604908 -0.014242 0)
(-0.0327894 -0.0149902 0)
(-0.00755884 -0.0070848 0)
(-0.000589839 -0.00566189 0)
(-0.00960018 0.00338985 0)
(-0.0226675 0.0128025 0)
(-0.0383778 0.019205 0)
(-0.0555618 0.0230781 0)
(-0.0732374 0.0249617 0)
(-0.0904522 0.0251347 0)
(-0.106373 0.0238503 0)
(-0.120258 0.0213356 0)
(-0.131478 0.0177821 0)
(-0.139504 0.0133305 0)
(-0.143851 0.00803444 0)
(-0.143997 0.00181103 0)
(-0.139409 -0.00557121 0)
(-0.130159 -0.0139307 0)
(-0.115901 -0.0231858 0)
(-0.0961495 -0.0329237 0)
(-0.0710539 -0.0415611 0)
(-0.0423787 -0.0444643 0)
(-0.0137093 -0.0303065 0)
(-0.00589656 0.00617638 0)
(-0.0211963 0.0191117 0)
(-0.0374468 0.0288566 0)
(-0.0542421 0.0357086 0)
(-0.0708817 0.0397229 0)
(-0.0867542 0.0410848 0)
(-0.101256 0.040036 0)
(-0.113841 0.0368732 0)
(-0.124045 0.0319052 0)
(-0.131516 0.0254179 0)
(-0.136028 0.0176362 0)
(-0.137448 0.00868102 0)
(-0.135623 -0.00146324 0)
(-0.130529 -0.0127955 0)
(-0.122182 -0.0252694 0)
(-0.109961 -0.0391218 0)
(-0.0930912 -0.0540367 0)
(-0.0710351 -0.0680182 0)
(-0.0446702 -0.0749192 0)
(-0.0159548 -0.0591551 0)
(-0.0075282 0.0212305 0)
(-0.0247198 0.0359649 0)
(-0.0415618 0.0454047 0)
(-0.0576306 0.051711 0)
(-0.0725235 0.0548402 0)
(-0.0859231 0.0548564 0)
(-0.0974862 0.0520011 0)
(-0.10692 0.0466373 0)
(-0.114018 0.039178 0)
(-0.118692 0.0300243 0)
(-0.12098 0.019505 0)
(-0.120989 0.00782379 0)
(-0.11871 -0.00495112 0)
(-0.114528 -0.0187959 0)
(-0.108117 -0.0342208 0)
(-0.0988484 -0.0517743 0)
(-0.0856839 -0.0713702 0)
(-0.0673918 -0.0909813 0)
(-0.0441868 -0.103376 0)
(-0.0160394 -0.0889888 0)
(-0.0069374 0.0364779 0)
(-0.0235014 0.0528062 0)
(-0.0392675 0.06121 0)
(-0.0536925 0.0662017 0)
(-0.066455 0.0677854 0)
(-0.0773831 0.0659973 0)
(-0.0863 0.061114 0)
(-0.0930872 0.0535734 0)
(-0.0977155 0.0438887 0)
(-0.100273 0.0325659 0)
(-0.100978 0.0200253 0)
(-0.100108 0.0065399 0)
(-0.0978081 -0.00780943 0)
(-0.0947084 -0.0232091 0)
(-0.0903927 -0.0405587 0)
(-0.0843001 -0.0608734 0)
(-0.0751838 -0.0845614 0)
(-0.061063 -0.109968 0)
(-0.041901 -0.129006 0)
(-0.0149225 -0.118046 0)
(-0.00527381 0.0501428 0)
(-0.0198166 0.0682276 0)
(-0.033551 0.0753479 0)
(-0.0458324 0.078685 0)
(-0.0563377 0.0784526 0)
(-0.0649531 0.074716 0)
(-0.0715849 0.0678 0)
(-0.0762049 0.0582179 0)
(-0.078871 0.0465803 0)
(-0.0797602 0.0335029 0)
(-0.0791935 0.0195167 0)
(-0.0775909 0.00498278 0)
(-0.0753357 -0.0100322 0)
(-0.0732197 -0.025981 0)
(-0.0708089 -0.0442049 0)
(-0.0677232 -0.066273 0)
(-0.0627079 -0.0933241 0)
(-0.0528655 -0.124526 0)
(-0.0385182 -0.1511 0)
(-0.0131311 -0.145242 0)
(-0.00320626 0.0609567 0)
(-0.0150026 0.0812695 0)
(-0.0262242 0.0872371 0)
(-0.0361436 0.0889359 0)
(-0.0444143 0.0869143 0)
(-0.0509463 0.0813053 0)
(-0.0556822 0.072491 0)
(-0.058629 0.0610581 0)
(-0.0598692 0.047715 0)
(-0.0595959 0.0332053 0)
(-0.0581533 0.0182086 0)
(-0.0560466 0.00319998 0)
(-0.053898 -0.0117909 0)
(-0.0524341 -0.0274806 0)
(-0.0513708 -0.0455912 0)
(-0.0506522 -0.0682996 0)
(-0.0494667 -0.0977296 0)
(-0.0436235 -0.134473 0)
(-0.03464 -0.169212 0)
(-0.0109882 -0.169911 0)
(-0.00110362 0.0682859 0)
(-0.00980855 0.0914447 0)
(-0.0183362 0.0966166 0)
(-0.0258609 0.0969058 0)
(-0.0320061 0.0933162 0)
(-0.0367039 0.086075 0)
(-0.0399235 0.075624 0)
(-0.0416929 0.0626119 0)
(-0.0420975 0.0478295 0)
(-0.0413082 0.0321395 0)
(-0.039623 0.0163723 0)
(-0.0375101 0.00113324 0)
(-0.0356441 -0.0134446 0)
(-0.0344313 -0.0284248 0)
(-0.0339853 -0.0456249 0)
(-0.0345452 -0.0677788 0)
(-0.0366121 -0.0982482 0)
(-0.0341005 -0.139956 0)
(-0.030747 -0.183197 0)
(-0.00869097 -0.19175 0)
(0.000763975 0.0719927 0)
(-0.0047006 0.0986013 0)
(-0.0104884 0.103444 0)
(-0.0156879 0.102653 0)
(-0.0198354 0.0978254 0)
(-0.0229003 0.0893056 0)
(-0.0248881 0.0775961 0)
(-0.0258618 0.0633938 0)
(-0.0259211 0.0475425 0)
(-0.0252173 0.0309841 0)
(-0.0239536 0.014663 0)
(-0.0222481 -0.000706264 0)
(-0.0211443 -0.0149868 0)
(-0.0200819 -0.0294005 0)
(-0.0198581 -0.0453412 0)
(-0.0204812 -0.0658873 0)
(-0.0250392 -0.0957163 0)
(-0.024902 -0.141425 0)
(-0.0271898 -0.193176 0)
(-0.00636255 -0.210751 0)
(0.00216464 0.0724205 0)
(-1.1384e-05 0.10261 0)
(-0.00305618 0.107809 0)
(-0.0060304 0.106297 0)
(-0.00827811 0.100593 0)
(-0.00981301 0.0911998 0)
(-0.0106849 0.0786829 0)
(-0.0110117 0.0637714 0)
(-0.0109329 0.0473232 0)
(-0.0106064 0.0302784 0)
(-0.0102108 0.0136069 0)
(-0.00973188 -0.00185192 0)
(-0.00932215 -0.0161493 0)
(-0.00864685 -0.0303447 0)
(-0.00894039 -0.0452194 0)
(-0.00891882 -0.0636299 0)
(-0.0152317 -0.0911869 0)
(-0.0163943 -0.139537 0)
(-0.0241573 -0.199467 0)
(-0.00406008 -0.227098 0)
(0.00314184 0.0702733 0)
(0.00397398 0.103465 0)
(0.00363034 0.109675 0)
(0.00283936 0.107934 0)
(0.00244631 0.101715 0)
(0.00244841 0.0918219 0)
(0.0027433 0.0789174 0)
(0.00314601 0.0637795 0)
(0.00346386 0.0472898 0)
(0.00352442 0.0303711 0)
(0.00321484 0.0138357 0)
(0.00231977 -0.00184521 0)
(0.00179422 -0.0164065 0)
(0.00154118 -0.0304937 0)
(6.36868e-05 -0.0448019 0)
(0.000290311 -0.0611527 0)
(-0.00725588 -0.0856318 0)
(-0.00866593 -0.134951 0)
(-0.021661 -0.202461 0)
(-0.00176797 -0.241057 0)
(0.0038029 0.0658764 0)
(0.00722564 0.101548 0)
(0.00933043 0.109122 0)
(0.0106806 0.10748 0)
(0.0121499 0.101009 0)
(0.0137553 0.0909352 0)
(0.015331 0.0780514 0)
(0.0166263 0.0631723 0)
(0.0174037 0.0471698 0)
(0.0174859 0.030905 0)
(0.0168428 0.0150296 0)
(0.0153481 -0.000364068 0)
(0.0135164 -0.0150863 0)
(0.0116478 -0.0291438 0)
(0.0088152 -0.0432526 0)
(0.00773762 -0.0579641 0)
(-0.000907163 -0.0794332 0)
(-0.00155963 -0.128096 0)
(-0.0195516 -0.202533 0)
(0.000595124 -0.252888 0)
(0.00415245 0.0597591 0)
(0.00967091 0.0972756 0)
(0.0138912 0.10634 0)
(0.0172987 0.105045 0)
(0.0206486 0.0985574 0)
(0.0239327 0.0885751 0)
(0.0269098 0.0760443 0)
(0.0292672 0.061797 0)
(0.0307335 0.0466495 0)
(0.0311313 0.0313464 0)
(0.0304294 0.0163888 0)
(0.0288231 0.00181067 0)
(0.0258271 -0.0123873 0)
(0.0223483 -0.0260544 0)
(0.0178751 -0.0396509 0)
(0.0145267 -0.0537708 0)
(0.00423704 -0.0737241 0)
(0.00505324 -0.11908 0)
(-0.0175936 -0.200132 0)
(0.00318669 -0.26276 0)
(0.00410674 0.0525473 0)
(0.0111195 0.0911589 0)
(0.0170735 0.101524 0)
(0.0224542 0.100645 0)
(0.0277454 0.0943016 0)
(0.0328187 0.084637 0)
(0.0373347 0.0727457 0)
(0.0409216 0.0594512 0)
(0.0432813 0.0454819 0)
(0.0442307 0.031451 0)
(0.043715 0.0177524 0)
(0.041915 0.00447631 0)
(0.0382064 -0.00858773 0)
(0.0334385 -0.0213383 0)
(0.0274032 -0.0340648 0)
(0.0216436 -0.0474235 0)
(0.008992 -0.0666921 0)
(0.011091 -0.109279 0)
(-0.0154494 -0.195854 0)
(0.0063717 -0.270588 0)
(0.00345372 0.0450376 0)
(0.0112155 0.0837757 0)
(0.0185234 0.0948642 0)
(0.02586 0.0942329 0)
(0.0332394 0.0881061 0)
(0.0402802 0.0789606 0)
(0.0465087 0.0679822 0)
(0.0514994 0.0559475 0)
(0.0549384 0.0434751 0)
(0.0566391 0.0310536 0)
(0.0565254 0.0190027 0)
(0.0547241 0.00744707 0)
(0.0505937 -0.00400742 0)
(0.0448658 -0.0153026 0)
(0.0374986 -0.0266723 0)
(0.0294225 -0.0389172 0)
(0.0147623 -0.0576487 0)
(0.0165068 -0.0999169 0)
(-0.0124182 -0.189813 0)
(0.0109187 -0.275929 0)
(0.00163999 0.0384441 0)
(0.0092904 0.0757557 0)
(0.0177866 0.0864876 0)
(0.0272397 0.0856681 0)
(0.0369823 0.0797613 0)
(0.0462471 0.0713489 0)
(0.0543968 0.0615783 0)
(0.0609679 0.0511214 0)
(0.065653 0.0404677 0)
(0.068279 0.0299864 0)
(0.0687735 0.0199261 0)
(0.0671785 0.0104187 0)
(0.063398 0.00125284 0)
(0.0569677 -0.00812225 0)
(0.0485368 -0.017734 0)
(0.0383553 -0.0285538 0)
(0.0224982 -0.0468614 0)
(0.0226865 -0.0912556 0)
(-0.00697547 -0.183704 0)
(0.0177468 -0.278046 0)
(-0.00242402 0.0342962 0)
(0.00400794 0.0680166 0)
(0.0144511 0.0764072 0)
(0.0264834 0.0746582 0)
(0.0390123 0.0689598 0)
(0.050809 0.061542 0)
(0.0610935 0.0533099 0)
(0.0694088 0.0447579 0)
(0.0754894 0.036229 0)
(0.0792018 0.0279755 0)
(0.0805043 0.0201696 0)
(0.0794213 0.0129095 0)
(0.0760533 0.00614289 0)
(0.0699573 -0.000698738 0)
(0.0610273 -0.00829262 0)
(0.0494578 -0.0172471 0)
(0.0339916 -0.0352144 0)
(0.0331046 -0.0834058 0)
(0.00336551 -0.176467 0)
(0.028196 -0.274365 0)
(-0.00872428 0.0397441 0)
(-0.00650657 0.0594028 0)
(0.00855472 0.0641267 0)
(0.0241576 0.0609403 0)
(0.0400642 0.0556916 0)
(0.0547317 0.0496912 0)
(0.0673871 0.0434282 0)
(0.0776692 0.0371696 0)
(0.085408 0.0311005 0)
(0.0905521 0.0253629 0)
(0.0931335 0.0200617 0)
(0.0932359 0.0152638 0)
(0.090962 0.0109885 0)
(0.0863614 0.00713926 0)
(0.0790211 0.00332938 0)
(0.0678584 -0.00236648 0)
(0.0574118 -0.0233325 0)
(0.0569541 -0.0753313 0)
(0.0258619 -0.161329 0)
(0.0462033 -0.254359 0)
(-0.0149797 0.0561294 0)
(-0.0171107 0.044926 0)
(0.00672282 0.0411363 0)
(0.028256 0.0388651 0)
(0.0485841 0.0358137 0)
(0.0670048 0.0323019 0)
(0.0830118 0.028742 0)
(0.096436 0.0253075 0)
(0.107267 0.0220679 0)
(0.115594 0.0190733 0)
(0.121581 0.0163637 0)
(0.125438 0.0139561 0)
(0.127434 0.0118112 0)
(0.12793 0.0096543 0)
(0.127213 0.00611323 0)
(0.122857 -0.0037016 0)
(0.124204 -0.025885 0)
(0.12187 -0.0649531 0)
(0.0832289 -0.126001 0)
(0.083413 -0.19997 0)
(0.0658887 0.0566125 0)
(0.0808909 0.0406885 0)
(0.117842 0.0305823 0)
(0.15101 0.0253231 0)
(0.179764 0.0219854 0)
(0.205534 0.0194482 0)
(0.228794 0.0173925 0)
(0.249662 0.0156787 0)
(0.268261 0.0142175 0)
(0.284762 0.0129532 0)
(0.299353 0.0118506 0)
(0.312226 0.0108815 0)
(0.323524 0.0100053 0)
(0.333164 0.00908581 0)
(0.340552 0.0075201 0)
(0.34452 0.00351834 0)
(0.335802 -0.00438739 0)
(0.304798 -0.0192699 0)
(0.231153 -0.0491206 0)
(0.167704 -0.105187 0)
)
;

boundaryField
{
    movingWall
    {
        type            fixedValue;
        value           uniform (1 0 0);
    }
    fixedWalls
    {
        type            noSlip;
    }
    frontAndBack
    {
        type            empty;
    }
}


// ************************************************************************* //
