/*--------------------------------*- C++ -*----------------------------------*\
  =========                 |
  \\      /  F ield         | OpenFOAM: The Open Source CFD Toolbox
   \\    /   O peration     | Website:  https://openfoam.org
    \\  /    A nd           | Version:  8
     \\/     M anipulation  |
\*---------------------------------------------------------------------------*/
FoamFile
{
    version     2.0;
    format      ascii;
    class       volScalarField;
    location    "2.5";
    object      p;
}
// * * * * * * * * * * * * * * * * * * * * * * * * * * * * * * * * * * * * * //

dimensions      [0 2 -2 0 0 0 0];

internalField   nonuniform List<scalar> 
400
(
3.30813e-08
-8.20877e-05
-0.000222006
-0.000380267
-0.000575148
-0.000843313
-0.00120921
-0.00166061
-0.00213586
-0.00253311
-0.00272801
-0.00258919
-0.00199279
-0.00084967
0.000842685
0.00298223
0.00527202
0.00715973
0.00806049
0.00789572
9.0459e-05
2.90356e-05
-0.000100875
-0.000290267
-0.000536825
-0.000863636
-0.00129723
-0.00182612
-0.00238523
-0.00286786
-0.00314764
-0.00309796
-0.00260893
-0.00161342
-6.34403e-05
0.00195195
0.0041619
0.00608576
0.00715226
0.00721966
0.000245722
0.000135719
-3.63962e-05
-0.000284276
-0.000640414
-0.00112709
-0.00174526
-0.00245747
-0.00318099
-0.00380127
-0.00419513
-0.00424869
-0.00386237
-0.00298862
-0.00157776
0.000284331
0.00240766
0.00440619
0.00569967
0.00599913
0.0002807
0.000142304
-0.000104859
-0.000475331
-0.00100028
-0.001689
-0.00251707
-0.00342078
-0.00430179
-0.00504321
-0.00553234
-0.00567783
-0.00540681
-0.00464487
-0.0034145
-0.00175327
0.000234862
0.00226814
0.0037556
0.00427767
9.45552e-05
-7.35446e-05
-0.000398272
-0.000895826
-0.00158573
-0.00245698
-0.00346296
-0.00452136
-0.00552389
-0.00635463
-0.00691164
-0.00711827
-0.00691703
-0.00628918
-0.00526202
-0.0038453
-0.00206497
-8.67415e-05
0.00149965
0.00221603
-0.00033217
-0.000521756
-0.000905833
-0.00149874
-0.00230963
-0.00331118
-0.00443968
-0.00559957
-0.0066763
-0.00755552
-0.00814318
-0.00837519
-0.00821837
-0.00769969
-0.00686843
-0.00571777
-0.00421277
-0.00238997
-0.000822465
4.02731e-05
-0.000932627
-0.00113015
-0.00154569
-0.00219118
-0.00306827
-0.00413922
-0.00532952
-0.00653547
-0.00763891
-0.00852634
-0.00910796
-0.00933091
-0.0091905
-0.0087495
-0.00808228
-0.00718449
-0.00599184
-0.00440729
-0.00297392
-0.00201838
-0.00160006
-0.00179367
-0.00221513
-0.00287287
-0.00376448
-0.00484791
-0.00604465
-0.00724847
-0.0083406
-0.00920819
-0.00976276
-0.00995975
-0.00981765
-0.00942109
-0.00886943
-0.00817449
-0.0072863
-0.00598326
-0.00477003
-0.0037747
-0.00224424
-0.00241827
-0.00282565
-0.00346162
-0.00432333
-0.00537046
-0.0065272
-0.00769056
-0.00874484
-0.00957892
-0.0101044
-0.010278
-0.0101282
-0.00975335
-0.00927243
-0.0087113
-0.00808398
-0.00705667
-0.00610481
-0.00510992
-0.00280135
-0.00294818
-0.00332049
-0.00390505
-0.00469952
-0.00566955
-0.0067478
-0.00783964
-0.00883624
-0.00963003
-0.0101334
-0.0102979
-0.010147
-0.00978949
-0.00935234
-0.00885513
-0.00844245
-0.00764068
-0.00695014
-0.00596964
-0.00323584
-0.00335843
-0.0036777
-0.00418903
-0.00488998
-0.00575515
-0.00672855
-0.00772605
-0.00864666
-0.00938759
-0.00986196
-0.0100176
-0.00988534
-0.00955739
-0.00914823
-0.00867267
-0.00842605
-0.00778474
-0.00733049
-0.00634582
-0.00354755
-0.00364354
-0.00389961
-0.00432273
-0.00491512
-0.00566138
-0.00651674
-0.00740707
-0.00823909
-0.00891529
-0.0093521
-0.00949877
-0.00938715
-0.00909525
-0.00871365
-0.00827646
-0.00807471
-0.007553
-0.0073082
-0.00625565
-0.00375808
-0.00382218
-0.00400219
-0.0043246
-0.00480032
-0.00542328
-0.00615842
-0.00694039
-0.00768318
-0.00829535
-0.00869859
-0.00884519
-0.0087585
-0.0084993
-0.00814319
-0.00773102
-0.00753461
-0.00703526
-0.00699845
-0.00571606
-0.0038951
-0.00391888
-0.00400708
-0.00421614
-0.00457089
-0.00507391
-0.00569728
-0.00638215
-0.00704829
-0.00760944
-0.00799148
-0.00814887
-0.00809459
-0.00786212
-0.00752586
-0.00712693
-0.00694559
-0.00626692
-0.00656659
-0.00470019
-0.00398782
-0.00395033
-0.00393098
-0.00401634
-0.0042513
-0.00464617
-0.00517645
-0.00578602
-0.00639755
-0.00692768
-0.00730437
-0.00748182
-0.00745207
-0.00726036
-0.00694639
-0.00655511
-0.00635562
-0.00542173
-0.0060598
-0.00307998
-0.00407309
-0.00391544
-0.00378014
-0.00373777
-0.00386244
-0.00417003
-0.00463441
-0.0051975
-0.00578154
-0.00630376
-0.00669246
-0.00690073
-0.00691505
-0.00676269
-0.0064767
-0.00610043
-0.00582985
-0.00471697
-0.00513208
-0.00049056
-0.00415843
-0.00383848
-0.00355724
-0.00338973
-0.00342206
-0.00367119
-0.00410258
-0.00465146
-0.00523688
-0.00577499
-0.00619345
-0.0064437
-0.00650792
-0.0063995
-0.00615195
-0.00582076
-0.00539337
-0.00398789
-0.00302043
0.00457481
-0.00433144
-0.00373446
-0.0032669
-0.00298968
-0.0029499
-0.00317155
-0.00360162
-0.00416498
-0.00477622
-0.00534966
-0.00581183
-0.00611202
-0.00622693
-0.00615719
-0.0059155
-0.00552304
-0.00488484
-0.00245223
0.0022312
0.0167503
-0.00522577
-0.00374174
-0.00300739
-0.00262554
-0.00254341
-0.00277005
-0.00322819
-0.00382931
-0.00448236
-0.00510019
-0.00560929
-0.00595884
-0.00612634
-0.00612083
-0.00600031
-0.00590038
-0.00439569
0.00139715
0.0135694
0.039468
-0.00847142
-0.00289087
-0.00156658
-0.0014831
-0.00161338
-0.00195751
-0.0025253
-0.00323353
-0.00398247
-0.00468359
-0.00526439
-0.00567392
-0.00588431
-0.00586565
-0.00542946
-0.00369021
0.000719139
0.0110051
0.0301979
0.0629818
)
;

boundaryField
{
    movingWall
    {
        type            zeroGradient;
    }
    fixedWalls
    {
        type            zeroGradient;
    }
    frontAndBack
    {
        type            empty;
    }
}


// ************************************************************************* //
