/*--------------------------------*- C++ -*----------------------------------*\
  =========                 |
  \\      /  F ield         | OpenFOAM: The Open Source CFD Toolbox
   \\    /   O peration     | Website:  https://openfoam.org
    \\  /    A nd           | Version:  8
     \\/     M anipulation  |
\*---------------------------------------------------------------------------*/
FoamFile
{
    version     2.0;
    format      ascii;
    class       surfaceScalarField;
    location    "2.5";
    object      phi;
}
// * * * * * * * * * * * * * * * * * * * * * * * * * * * * * * * * * * * * * //

dimensions      [0 3 -1 0 0 0 0];

internalField   nonuniform List<scalar> 
760
(
1.09752e-07
-1.09755e-07
1.44662e-07
-3.49101e-08
2.83041e-08
1.16357e-07
-2.80007e-07
3.08311e-07
-7.82749e-07
5.02742e-07
-1.43593e-06
6.53178e-07
-2.17472e-06
7.38791e-07
-2.93519e-06
7.60477e-07
-3.66197e-06
7.26778e-07
-4.30826e-06
6.46291e-07
-4.83419e-06
5.25929e-07
-5.20454e-06
3.70343e-07
-5.38603e-06
1.81496e-07
-5.33806e-06
-4.79737e-08
-5.01736e-06
-3.20699e-07
-4.38438e-06
-6.32981e-07
-3.42227e-06
-9.62105e-07
-2.16937e-06
-1.25291e-06
-8.28316e-07
-1.34105e-06
-8.28316e-07
-1.3096e-07
2.12052e-08
-4.71265e-07
3.05395e-07
-1.01444e-06
6.5953e-07
-1.70421e-06
9.9808e-07
-2.47703e-06
1.27556e-06
-3.28625e-06
1.4624e-06
-4.09113e-06
1.54367e-06
-4.84878e-06
1.51813e-06
-5.51653e-06
1.39453e-06
-6.05516e-06
1.18492e-06
-6.43049e-06
9.01252e-07
-6.61273e-06
5.52592e-07
-6.57038e-06
1.39143e-07
-6.29418e-06
-3.24179e-07
-5.77553e-06
-8.39342e-07
-5.00594e-06
-1.40257e-06
-3.96881e-06
-1.99924e-06
-2.67394e-06
-2.54778e-06
-1.22672e-06
-2.78827e-06
-2.05504e-06
-3.96662e-07
4.17868e-07
-9.98902e-07
9.07635e-07
-1.68603e-06
1.34666e-06
-2.42551e-06
1.73756e-06
-3.1843e-06
2.03436e-06
-3.92712e-06
2.20522e-06
-4.62051e-06
2.23706e-06
-5.23329e-06
2.13091e-06
-5.73637e-06
1.89761e-06
-6.10474e-06
1.55329e-06
-6.31915e-06
1.11566e-06
-6.3673e-06
6.0074e-07
-6.23447e-06
6.31946e-09
-5.9396e-06
-6.19049e-07
-5.47155e-06
-1.3074e-06
-4.80702e-06
-2.0671e-06
-3.91027e-06
-2.89598e-06
-2.75326e-06
-3.70479e-06
-1.37082e-06
-4.17071e-06
-3.42586e-06
-5.25619e-07
9.43487e-07
-1.19722e-06
1.57923e-06
-1.89541e-06
2.04485e-06
-2.59438e-06
2.43652e-06
-3.2719e-06
2.71188e-06
-3.90435e-06
2.83766e-06
-4.46803e-06
2.80075e-06
-4.94129e-06
2.60416e-06
-5.30578e-06
2.2621e-06
-5.548e-06
1.79551e-06
-5.66038e-06
1.22804e-06
-5.64122e-06
5.81586e-07
-5.50574e-06
-1.29159e-07
-5.25361e-06
-8.71184e-07
-4.88522e-06
-1.67578e-06
-4.37112e-06
-2.5812e-06
-3.65645e-06
-3.61065e-06
-2.67171e-06
-4.68954e-06
-1.39366e-06
-5.44876e-06
-4.81952e-06
-5.21389e-07
1.46488e-06
-1.16276e-06
2.22061e-06
-1.80191e-06
2.684e-06
-2.41698e-06
3.0516e-06
-2.99163e-06
3.28653e-06
-3.50887e-06
3.35491e-06
-3.9523e-06
3.24418e-06
-4.3074e-06
2.95926e-06
-4.5629e-06
2.5176e-06
-4.71221e-06
1.94482e-06
-4.75509e-06
1.27092e-06
-4.70005e-06
5.26546e-07
-4.5686e-06
-2.60609e-07
-4.37217e-06
-1.06761e-06
-4.11487e-06
-1.93308e-06
-3.76743e-06
-2.92865e-06
-3.25738e-06
-4.12069e-06
-2.47293e-06
-5.47399e-06
-1.34094e-06
-6.58075e-06
-6.16046e-06
-4.34976e-07
1.89985e-06
-9.88894e-07
2.77453e-06
-1.53132e-06
3.22642e-06
-2.04029e-06
3.56057e-06
-2.50371e-06
3.74995e-06
-2.90953e-06
3.76072e-06
-3.24627e-06
3.58092e-06
-3.50393e-06
3.21692e-06
-3.67491e-06
2.68858e-06
-3.75542e-06
2.02532e-06
-3.74817e-06
1.26367e-06
-3.66705e-06
4.45432e-07
-3.53913e-06
-3.88527e-07
-3.3901e-06
-1.21665e-06
-3.23604e-06
-2.08714e-06
-3.05373e-06
-3.11096e-06
-2.75801e-06
-4.41641e-06
-2.19389e-06
-6.03811e-06
-1.24117e-06
-7.53347e-06
-7.40164e-06
-3.09003e-07
2.20885e-06
-7.44867e-07
3.21039e-06
-1.1707e-06
3.65225e-06
-1.56276e-06
3.95263e-06
-1.91253e-06
4.09973e-06
-2.21232e-06
4.06051e-06
-2.45477e-06
3.82337e-06
-2.63333e-06
3.39548e-06
-2.74253e-06
2.79779e-06
-2.77895e-06
2.06174e-06
-2.74388e-06
1.22859e-06
-2.64947e-06
3.51026e-07
-2.52509e-06
-5.12905e-07
-2.40914e-06
-1.3326e-06
-2.33415e-06
-2.16214e-06
-2.29541e-06
-3.1497e-06
-2.20743e-06
-4.50438e-06
-1.86973e-06
-6.37581e-06
-1.11371e-06
-8.28948e-06
-8.51535e-06
-1.72495e-07
2.38135e-06
-4.77386e-07
3.51528e-06
-7.79503e-07
3.95437e-06
-1.05157e-06
4.22469e-06
-1.28832e-06
4.33648e-06
-1.48642e-06
4.25862e-06
-1.64276e-06
3.97971e-06
-1.75464e-06
3.50735e-06
-1.81958e-06
2.86273e-06
-1.83517e-06
2.07734e-06
-1.79994e-06
1.19336e-06
-1.71678e-06
2.67865e-07
-1.60906e-06
-6.20622e-07
-1.51862e-06
-1.42304e-06
-1.49243e-06
-2.18833e-06
-1.55839e-06
-3.08373e-06
-1.65333e-06
-4.40944e-06
-1.53262e-06
-6.49652e-06
-9.76716e-07
-8.84538e-06
-9.49207e-06
-4.6455e-08
2.42781e-06
-2.18007e-07
3.68683e-06
-3.99224e-07
4.13558e-06
-5.54532e-07
4.38e-06
-6.8131e-07
4.46325e-06
-7.80586e-07
4.35789e-06
-8.53617e-07
4.05274e-06
-9.0197e-07
3.55571e-06
-9.27301e-07
2.88806e-06
-9.30453e-07
2.08049e-06
-9.12233e-07
1.17514e-06
-8.68806e-07
2.24438e-07
-8.06872e-07
-6.82556e-07
-7.5924e-07
-1.47067e-06
-7.70399e-07
-2.17717e-06
-8.96689e-07
-2.95744e-06
-1.13528e-06
-4.17085e-06
-1.2084e-06
-6.42341e-06
-8.43599e-07
-9.21018e-06
-1.03357e-05
5.54016e-08
2.3724e-06
8.35221e-09
3.73388e-06
-5.96931e-08
4.20363e-06
-1.07129e-07
4.42743e-06
-1.3066e-07
4.48678e-06
-1.34985e-07
4.36222e-06
-1.25662e-07
4.04342e-06
-1.08255e-07
3.5383e-06
-8.78525e-08
2.86765e-06
-6.94458e-08
2.06209e-06
-5.57872e-08
1.16148e-06
-5.62301e-08
2.24881e-07
-7.58782e-08
-6.62907e-07
-1.14584e-07
-1.43197e-06
-1.79855e-07
-2.1119e-06
-3.45778e-07
-2.79152e-06
-6.79402e-07
-3.83723e-06
-9.15496e-07
-6.18731e-06
-7.2295e-07
-9.40272e-06
-1.10586e-05
1.30503e-07
2.2419e-06
1.88079e-07
3.67631e-06
2.20592e-07
4.17112e-06
2.70088e-07
4.37794e-06
3.4229e-07
4.41458e-06
4.29394e-07
4.27511e-06
5.21086e-07
3.95172e-06
6.07009e-07
3.45238e-06
6.77094e-07
2.79757e-06
7.20453e-07
2.01873e-06
7.23261e-07
1.15867e-06
6.69768e-07
2.78374e-07
5.68464e-07
-5.61603e-07
4.43495e-07
-1.307e-06
2.96581e-07
-1.96499e-06
7.91074e-08
-2.57405e-06
-2.91115e-07
-3.46701e-06
-6.61584e-07
-5.81684e-06
-6.17949e-07
-9.44636e-06
-1.16766e-05
1.8035e-07
2.06155e-06
3.17074e-07
3.53958e-06
4.32861e-07
4.05533e-06
5.65876e-07
4.24492e-06
7.22262e-07
4.2582e-06
8.91081e-07
4.10629e-06
1.05696e-06
3.78585e-06
1.20423e-06
3.3051e-06
1.31743e-06
2.68437e-06
1.38043e-06
1.95572e-06
1.37641e-06
1.1627e-06
1.29285e-06
3.61937e-07
1.13555e-06
-4.0431e-07
9.29999e-07
-1.10144e-06
6.89239e-07
-1.72423e-06
4.19225e-07
-2.30403e-06
3.73176e-08
-3.0851e-06
-4.46001e-07
-5.33352e-06
-5.273e-07
-9.36506e-06
-1.22039e-05
2.01656e-07
1.85989e-06
3.90536e-07
3.3507e-06
5.71471e-07
3.87439e-06
7.7472e-07
4.04167e-06
1.00368e-06
4.02924e-06
1.2437e-06
3.86627e-06
1.47436e-06
3.55518e-06
1.67478e-06
3.10469e-06
1.82475e-06
2.53439e-06
1.9052e-06
1.87528e-06
1.8994e-06
1.16849e-06
1.79825e-06
4.63091e-07
1.60378e-06
-2.09837e-07
1.33909e-06
-8.36761e-07
1.01991e-06
-1.40504e-06
6.60813e-07
-1.94494e-06
2.50708e-07
-2.67499e-06
-2.62952e-07
-4.81986e-06
-4.46085e-07
-9.18193e-06
-1.26499e-05
1.88607e-07
1.67129e-06
4.01542e-07
3.13777e-06
6.30761e-07
3.64517e-06
8.93427e-07
3.77901e-06
1.18572e-06
3.73694e-06
1.48798e-06
3.56401e-06
1.77498e-06
3.26819e-06
2.02141e-06
2.85826e-06
2.20382e-06
2.35198e-06
2.3019e-06
1.7772e-06
2.30057e-06
1.16982e-06
2.19378e-06
5.69878e-07
1.97763e-06
6.31503e-09
1.67301e-06
-5.32136e-07
1.29388e-06
-1.02592e-06
8.57869e-07
-1.50893e-06
4.0283e-07
-2.21995e-06
-1.04354e-07
-4.31268e-06
-3.59522e-07
-8.92676e-06
-1.30095e-05
1.2734e-07
1.54395e-06
3.40885e-07
2.92422e-06
6.05538e-07
3.38052e-06
9.21703e-07
3.46284e-06
1.27263e-06
3.38601e-06
1.63174e-06
3.20491e-06
1.96937e-06
2.93055e-06
2.25716e-06
2.57047e-06
2.46993e-06
2.13921e-06
2.58746e-06
1.65967e-06
2.5964e-06
1.16089e-06
2.49241e-06
6.73869e-07
2.27577e-06
2.22954e-07
1.9457e-06
-2.02074e-07
1.52606e-06
-6.06276e-07
1.03355e-06
-1.01641e-06
5.36528e-07
-1.72294e-06
6.41195e-08
-3.84027e-06
-2.14216e-07
-8.64842e-06
-1.32237e-05
1.66021e-09
1.54229e-06
1.9525e-07
2.73063e-06
4.924e-07
3.08337e-06
8.63757e-07
3.09149e-06
1.27457e-06
2.97521e-06
1.68954e-06
2.78994e-06
2.07548e-06
2.5446e-06
2.40266e-06
2.2433e-06
2.64591e-06
1.89595e-06
2.78618e-06
1.51941e-06
2.81193e-06
1.13514e-06
2.72029e-06
7.65508e-07
2.51482e-06
4.28417e-07
2.19019e-06
1.22557e-07
1.75584e-06
-1.71921e-07
1.23565e-06
-4.96216e-07
7.25818e-07
-1.21311e-06
3.75743e-07
-3.4902e-06
6.87751e-08
-8.34146e-06
-1.31549e-05
-2.38462e-07
1.78075e-06
-6.35741e-08
2.55575e-06
2.89575e-07
2.73022e-06
7.31567e-07
2.64949e-06
1.21118e-06
2.49559e-06
1.68581e-06
2.31531e-06
2.12144e-06
2.10897e-06
2.48942e-06
1.87532e-06
2.76649e-06
1.61888e-06
2.93604e-06
1.34986e-06
2.98918e-06
1.082e-06
2.92525e-06
8.29436e-07
2.75087e-06
6.02804e-07
2.46928e-06
4.04146e-07
2.07591e-06
2.21446e-07
1.55751e-06
2.21866e-08
1.12762e-06
-7.83222e-07
8.87498e-07
-3.25007e-06
4.31832e-07
-7.88579e-06
-1.27231e-05
-5.98775e-07
2.37952e-06
-4.40657e-07
2.39763e-06
3.06711e-08
2.25889e-06
5.84432e-07
2.09573e-06
1.15305e-06
1.92697e-06
1.69953e-06
1.76883e-06
2.1956e-06
1.6129e-06
2.61715e-06
1.45377e-06
2.94536e-06
1.29067e-06
3.16809e-06
1.12713e-06
3.28063e-06
9.69458e-07
3.2854e-06
8.24662e-07
3.18958e-06
6.98632e-07
2.99917e-06
5.94552e-07
2.71906e-06
5.01558e-07
2.4577e-06
2.83544e-07
2.32258e-06
-6.48098e-07
2.05987e-06
-2.98737e-06
1.18206e-06
-7.00798e-06
-1.1541e-05
-9.3574e-07
3.31527e-06
-5.27415e-07
1.9893e-06
2.27359e-07
1.50412e-06
9.95575e-07
1.32752e-06
1.72033e-06
1.20221e-06
2.40037e-06
1.08879e-06
3.02205e-06
9.91226e-07
3.57078e-06
9.05038e-07
4.03626e-06
8.25199e-07
4.41344e-06
7.49939e-07
4.70326e-06
6.7964e-07
4.91268e-06
6.15247e-07
5.0549e-06
5.56411e-07
5.1553e-06
4.94148e-07
5.28055e-06
3.76314e-07
5.49821e-06
6.58857e-08
5.70684e-06
-8.56737e-07
5.14082e-06
-2.42134e-06
3.09673e-06
-4.96389e-06
-8.44429e-06
3.31527e-06
5.30457e-06
6.80869e-06
8.13621e-06
9.33842e-06
1.04272e-05
1.14184e-05
1.23235e-05
1.31487e-05
1.38986e-05
1.45783e-05
1.51935e-05
1.57499e-05
1.62441e-05
1.66204e-05
1.66863e-05
1.58295e-05
1.34082e-05
8.44429e-06
)
;

boundaryField
{
    movingWall
    {
        type            calculated;
        value           uniform 0;
    }
    fixedWalls
    {
        type            calculated;
        value           uniform 0;
    }
    frontAndBack
    {
        type            empty;
        value           nonuniform List<scalar> 0();
    }
}


// ************************************************************************* //
