/*--------------------------------*- C++ -*----------------------------------*\
  =========                 |
  \\      /  F ield         | OpenFOAM: The Open Source CFD Toolbox
   \\    /   O peration     | Website:  https://openfoam.org
    \\  /    A nd           | Version:  8
     \\/     M anipulation  |
\*---------------------------------------------------------------------------*/
FoamFile
{
    version     2.0;
    format      ascii;
    class       volVectorField;
    location    "2.5";
    object      U;
}
// * * * * * * * * * * * * * * * * * * * * * * * * * * * * * * * * * * * * * //

dimensions      [0 1 -1 0 0 0 0];

internalField   nonuniform List<vector> 
400
(
(0.00129564 -0.00163459 0)
(0.00294572 -0.00186871 0)
(0.00258791 -0.00144115 0)
(-0.00138353 0.000216621 0)
(-0.00954384 0.00285516 0)
(-0.0215169 0.00542056 0)
(-0.035966 0.0072007 0)
(-0.051381 0.00808669 0)
(-0.0665527 0.00822961 0)
(-0.0804969 0.00779316 0)
(-0.0923822 0.00689345 0)
(-0.101472 0.00558826 0)
(-0.107051 0.00385574 0)
(-0.108402 0.00155492 0)
(-0.104739 -0.00159659 0)
(-0.0948523 -0.00539766 0)
(-0.0784078 -0.00948211 0)
(-0.0560155 -0.0130335 0)
(-0.0301734 -0.0137625 0)
(-0.00660449 -0.00624655 0)
(-0.000245471 -0.00256975 0)
(-0.00492103 0.000734605 0)
(-0.0139963 0.00665358 0)
(-0.026615 0.0129001 0)
(-0.0414271 0.0181112 0)
(-0.0575078 0.0216573 0)
(-0.0739802 0.0233754 0)
(-0.0899133 0.0233486 0)
(-0.104414 0.0217641 0)
(-0.116664 0.0188271 0)
(-0.125944 0.0147235 0)
(-0.131623 0.00958701 0)
(-0.133117 0.00345517 0)
(-0.129856 -0.00375256 0)
(-0.121622 -0.0119991 0)
(-0.108521 -0.0210483 0)
(-0.0901295 -0.0304795 0)
(-0.0666194 -0.0387983 0)
(-0.0396563 -0.0415467 0)
(-0.0125333 -0.027748 0)
(-0.00274105 0.0036902 0)
(-0.0134652 0.0120323 0)
(-0.0263967 0.0202068 0)
(-0.0408548 0.027612 0)
(-0.0560572 0.0334384 0)
(-0.0713084 0.0370695 0)
(-0.085908 0.0382266 0)
(-0.0991824 0.0369201 0)
(-0.110505 0.0333364 0)
(-0.119325 0.0277413 0)
(-0.125212 0.0204165 0)
(-0.127866 0.0116036 0)
(-0.127034 0.00145161 0)
(-0.122478 -0.00999469 0)
(-0.114826 -0.0223817 0)
(-0.103435 -0.0358656 0)
(-0.0876601 -0.0502323 0)
(-0.0669742 -0.0636698 0)
(-0.0421417 -0.0702668 0)
(-0.0149018 -0.0547895 0)
(-0.00420559 0.0136511 0)
(-0.0170271 0.0250348 0)
(-0.0307647 0.0341788 0)
(-0.0448954 0.0420501 0)
(-0.0588385 0.0478049 0)
(-0.0721247 0.0508046 0)
(-0.0842585 0.05077 0)
(-0.0947688 0.0477276 0)
(-0.103239 0.0419196 0)
(-0.109341 0.0337104 0)
(-0.112879 0.0235096 0)
(-0.113801 0.0117027 0)
(-0.112105 -0.00140993 0)
(-0.108073 -0.0155725 0)
(-0.101914 -0.0308236 0)
(-0.0931492 -0.0477501 0)
(-0.080848 -0.06648 0)
(-0.0637487 -0.0852783 0)
(-0.041891 -0.0972011 0)
(-0.0151517 -0.0830041 0)
(-0.00415962 0.024243 0)
(-0.0167686 0.0381942 0)
(-0.0296448 0.0475525 0)
(-0.0423376 0.055205 0)
(-0.0543809 0.0603441 0)
(-0.0654439 0.0622982 0)
(-0.0751765 0.0608092 0)
(-0.0832555 0.0559538 0)
(-0.0894085 0.0480481 0)
(-0.0934488 0.0375564 0)
(-0.0953238 0.0250107 0)
(-0.0951239 0.0109399 0)
(-0.0929773 -0.00418747 0)
(-0.0896408 -0.0199969 0)
(-0.085181 -0.037012 0)
(-0.0793039 -0.0563346 0)
(-0.0708775 -0.0787589 0)
(-0.0578311 -0.103065 0)
(-0.0398356 -0.12148 0)
(-0.0141932 -0.110611 0)
(-0.00316801 0.0338742 0)
(-0.0142011 0.050211 0)
(-0.0252742 0.0594188 0)
(-0.0359304 0.066482 0)
(-0.0457785 0.0707422 0)
(-0.0545868 0.0715212 0)
(-0.0621081 0.0685778 0)
(-0.0681186 0.0620301 0)
(-0.0724301 0.0522577 0)
(-0.0749198 0.0398175 0)
(-0.0755794 0.0253781 0)
(-0.0745389 0.00966441 0)
(-0.072039 -0.00665307 0)
(-0.0692683 -0.0232153 0)
(-0.0663257 -0.0408715 0)
(-0.063214 -0.0614313 0)
(-0.0587968 -0.0867147 0)
(-0.0499983 -0.116529 0)
(-0.0366582 -0.142376 0)
(-0.0125419 -0.136517 0)
(-0.00177705 0.041437 0)
(-0.0104807 0.0602137 0)
(-0.019249 0.0691759 0)
(-0.0275599 0.0755425 0)
(-0.0350838 0.0789018 0)
(-0.0416747 0.0785834 0)
(-0.0471724 0.0743551 0)
(-0.0514327 0.0663585 0)
(-0.0543277 0.0550109 0)
(-0.0557603 0.0409371 0)
(-0.0556898 0.024937 0)
(-0.0541662 0.0079693 0)
(-0.0514664 -0.00902045 0)
(-0.0490952 -0.0255814 0)
(-0.0472429 -0.0427943 0)
(-0.04635 -0.063291 0)
(-0.0457737 -0.0903162 0)
(-0.041058 -0.125414 0)
(-0.0329547 -0.159412 0)
(-0.0105196 -0.160038 0)
(-0.000364061 0.046352 0)
(-0.00639067 0.0677208 0)
(-0.0126572 0.0765205 0)
(-0.0185188 0.0822315 0)
(-0.0236932 0.0848034 0)
(-0.0281182 0.083589 0)
(-0.0317205 0.0783591 0)
(-0.0344384 0.0692635 0)
(-0.0362169 0.0567277 0)
(-0.0370031 0.0413947 0)
(-0.0367215 0.0241349 0)
(-0.0352724 0.00610264 0)
(-0.0328249 -0.0113746 0)
(-0.0308826 -0.0275571 0)
(-0.0297371 -0.0435266 0)
(-0.0301525 -0.0626336 0)
(-0.0329502 -0.0899213 0)
(-0.0317836 -0.129791 0)
(-0.0292157 -0.17241 0)
(-0.00832598 -0.180851 0)
(0.000790573 0.0485009 0)
(-0.00248812 0.0726044 0)
(-0.00624548 0.0813963 0)
(-0.00971974 0.0865369 0)
(-0.0126053 0.0884734 0)
(-0.0149221 0.0866044 0)
(-0.016685 0.0807031 0)
(-0.0179197 0.0709248 0)
(-0.0186547 0.0576941 0)
(-0.0189135 0.0416355 0)
(-0.0186707 0.0235847 0)
(-0.0177608 0.00468631 0)
(-0.0162763 -0.013291 0)
(-0.0152197 -0.0291093 0)
(-0.0149337 -0.0436883 0)
(-0.0157578 -0.0604598 0)
(-0.0212521 -0.0862677 0)
(-0.0228134 -0.130042 0)
(-0.0258147 -0.181465 0)
(-0.00609018 -0.198939 0)
(0.00156169 0.0483788 0)
(0.000860465 0.0747363 0)
(-0.000558859 0.0839222 0)
(-0.00182676 0.0885963 0)
(-0.00256983 0.0900397 0)
(-0.00286692 0.087752 0)
(-0.00281685 0.0815065 0)
(-0.002532 0.0714567 0)
(-0.00212037 0.0580183 0)
(-0.00167074 0.0417901 0)
(-0.00129667 0.023567 0)
(-0.000882485 0.00433683 0)
(-0.00108611 -0.0138351 0)
(-0.00159521 -0.0294225 0)
(-0.00287138 -0.0431345 0)
(-0.00382282 -0.057477 0)
(-0.011257 -0.0803255 0)
(-0.0145602 -0.126757 0)
(-0.0229737 -0.186884 0)
(-0.00387873 -0.214491 0)
(0.00202819 0.046507 0)
(0.00344643 0.07459 0)
(0.00406082 0.084232 0)
(0.00476291 0.0885408 0)
(0.00595382 0.0895212 0)
(0.00753672 0.0868911 0)
(0.0093265 0.0804581 0)
(0.0111148 0.0703818 0)
(0.012706 0.0570785 0)
(0.0139132 0.0411729 0)
(0.0145062 0.0234937 0)
(0.0145425 0.00515026 0)
(0.0129034 -0.0121985 0)
(0.0105652 -0.0274695 0)
(0.00733013 -0.0409109 0)
(0.00549906 -0.0535432 0)
(-0.00321149 -0.0729446 0)
(-0.00717694 -0.120535 0)
(-0.0207565 -0.189082 0)
(-0.00168911 -0.227808 0)
(0.00222208 0.0433046 0)
(0.00523904 0.072552 0)
(0.00747774 0.0826836 0)
(0.00985317 0.0866568 0)
(0.0127323 0.0871707 0)
(0.0159953 0.0842642 0)
(0.0193674 0.0778157 0)
(0.022536 0.0679869 0)
(0.0252018 0.0551889 0)
(0.0270646 0.0400645 0)
(0.0278031 0.023479 0)
(0.0273716 0.00656225 0)
(0.0248927 -0.00959016 0)
(0.0211732 -0.0241159 0)
(0.0162859 -0.0370466 0)
(0.0124881 -0.0489734 0)
(0.00272718 -0.0649825 0)
(-0.000637373 -0.11184 0)
(-0.0190919 -0.188509 0)
(0.000547914 -0.239213 0)
(0.00212698 0.0393424 0)
(0.00615685 0.0691511 0)
(0.00958289 0.0796248 0)
(0.0133265 0.0832308 0)
(0.0176481 0.0832616 0)
(0.0223722 0.080123 0)
(0.02713 0.0738 0)
(0.031505 0.0644616 0)
(0.0350953 0.0525098 0)
(0.0375138 0.038584 0)
(0.0383991 0.0235415 0)
(0.0376445 0.00842356 0)
(0.0346764 -0.0060751 0)
(0.0300124 -0.0193618 0)
(0.0238352 -0.03137 0)
(0.0182187 -0.042647 0)
(0.00647545 -0.0577004 0)
(0.00505222 -0.101351 0)
(-0.0177854 -0.18571 0)
(0.00298552 -0.248983 0)
(0.00167424 0.0352645 0)
(0.0060571 0.064959 0)
(0.0102454 0.0754244 0)
(0.0150937 0.0785158 0)
(0.0206623 0.0780073 0)
(0.0266648 0.0746596 0)
(0.0326316 0.0685804 0)
(0.0380524 0.0599478 0)
(0.0424428 0.049141 0)
(0.0453645 0.0367581 0)
(0.0464529 0.0235804 0)
(0.0455694 0.0104946 0)
(0.0424247 -0.00201647 0)
(0.0371454 -0.0136327 0)
(0.0300556 -0.0243205 0)
(0.023082 -0.0346126 0)
(0.00883054 -0.0490105 0)
(0.0100222 -0.0907542 0)
(-0.016427 -0.181455 0)
(0.00595975 -0.257236 0)
(0.00066672 0.0318446 0)
(0.0046657 0.0605531 0)
(0.00931552 0.0704113 0)
(0.0151019 0.0726987 0)
(0.0218173 0.0715565 0)
(0.0289955 0.0680213 0)
(0.0360555 0.0623005 0)
(0.0424113 0.0545667 0)
(0.0475265 0.0451509 0)
(0.050943 0.0345695 0)
(0.0523134 0.0234785 0)
(0.051466 0.0125884 0)
(0.0484411 0.00239652 0)
(0.0428735 -0.00730623 0)
(0.0352552 -0.0163113 0)
(0.0272198 -0.0252467 0)
(0.0110022 -0.0394046 0)
(0.0145401 -0.0808326 0)
(-0.0143473 -0.176463 0)
(0.0101675 -0.263771 0)
(-0.00127661 0.0300072 0)
(0.00142805 0.0565607 0)
(0.0066463 0.0648278 0)
(0.0133674 0.0658584 0)
(0.0212618 0.0639608 0)
(0.0296148 0.060282 0)
(0.037729 0.0550495 0)
(0.0449695 0.0483941 0)
(0.0507847 0.0405688 0)
(0.054727 0.0319773 0)
(0.0564815 0.0231271 0)
(0.0558984 0.0145518 0)
(0.0530263 0.00667271 0)
(0.0477706 -0.000617579 0)
(0.0401268 -0.00772749 0)
(0.0313004 -0.0150705 0)
(0.0146656 -0.0293718 0)
(0.0190985 -0.073522 0)
(-0.010005 -0.17137 0)
(0.0166728 -0.267737 0)
(-0.00429018 0.0323607 0)
(-0.00421771 0.0527756 0)
(0.00190443 0.0585275 0)
(0.0100291 0.0578811 0)
(0.0193238 0.0551398 0)
(0.0289672 0.0514133 0)
(0.0381797 0.0468225 0)
(0.0463253 0.0414075 0)
(0.052882 0.0353181 0)
(0.057446 0.0288276 0)
(0.0597538 0.0222875 0)
(0.0597021 0.01606 0)
(0.0573526 0.0104268 0)
(0.0528607 0.00543577 0)
(0.0462383 0.000598524 0)
(0.0368161 -0.00562953 0)
(0.0218677 -0.0200664 0)
(0.0272823 -0.0691427 0)
(-0.000447265 -0.16697 0)
(0.0269068 -0.266109 0)
(-0.00929784 0.0417865 0)
(-0.0124789 0.0502472 0)
(-0.00485103 0.0512726 0)
(0.0061827 0.0486266 0)
(0.0173131 0.0452019 0)
(0.0285452 0.041691 0)
(0.0390757 0.0379921 0)
(0.0483516 0.0340192 0)
(0.055942 0.0298043 0)
(0.0615323 0.0254862 0)
(0.0649457 0.0212665 0)
(0.0661524 0.017357 0)
(0.0652486 0.0139312 0)
(0.0623862 0.0111033 0)
(0.0576967 0.00898746 0)
(0.050477 0.0070582 0)
(0.0421854 -0.0107374 0)
(0.0491251 -0.0656883 0)
(0.0214936 -0.155136 0)
(0.0447134 -0.248733 0)
(-0.0137383 0.0590402 0)
(-0.0186329 0.0416317 0)
(-0.00388783 0.0341704 0)
(0.0126972 0.0315664 0)
(0.0271615 0.0292568 0)
(0.0412429 0.0269099 0)
(0.0543489 0.0246929 0)
(0.0661282 0.022559 0)
(0.0763355 0.0204488 0)
(0.0848149 0.018373 0)
(0.0915183 0.0163911 0)
(0.0965186 0.0145722 0)
(0.100016 0.0129521 0)
(0.102393 0.0113963 0)
(0.104325 0.00885528 0)
(0.102282 0.000544109 0)
(0.109536 -0.0214921 0)
(0.113577 -0.061322 0)
(0.0788679 -0.123158 0)
(0.0818129 -0.196959 0)
(0.0674229 0.0595568 0)
(0.0843128 0.0430258 0)
(0.119522 0.0321193 0)
(0.149996 0.0260709 0)
(0.175446 0.0222097 0)
(0.198113 0.0193692 0)
(0.218806 0.0171733 0)
(0.237744 0.0154266 0)
(0.255039 0.0139931 0)
(0.270787 0.0127841 0)
(0.285077 0.0117444 0)
(0.298011 0.0108376 0)
(0.309686 0.0100293 0)
(0.320042 0.00922662 0)
(0.328483 0.00795193 0)
(0.334436 0.00432827 0)
(0.328625 -0.00340752 0)
(0.300176 -0.0181909 0)
(0.228454 -0.0480211 0)
(0.166333 -0.10386 0)
)
;

boundaryField
{
    movingWall
    {
        type            fixedValue;
        value           uniform (1 0 0);
    }
    fixedWalls
    {
        type            noSlip;
    }
    frontAndBack
    {
        type            empty;
    }
}


// ************************************************************************* //
