/*--------------------------------*- C++ -*----------------------------------*\
  =========                 |
  \\      /  F ield         | OpenFOAM: The Open Source CFD Toolbox
   \\    /   O peration     | Website:  https://openfoam.org
    \\  /    A nd           | Version:  8
     \\/     M anipulation  |
\*---------------------------------------------------------------------------*/
FoamFile
{
    version     2.0;
    format      ascii;
    class       volScalarField;
    location    "9";
    object      p;
}
// * * * * * * * * * * * * * * * * * * * * * * * * * * * * * * * * * * * * * //

dimensions      [0 2 -2 0 0 0 0];

internalField   nonuniform List<scalar> 
400
(
1.25366e-08
-0.000181128
-0.000387403
-0.000633183
-0.00100811
-0.00152037
-0.00215778
-0.00285575
-0.00351162
-0.00400215
-0.00419694
-0.00396522
-0.00318861
-0.0017969
0.000207924
0.00270954
0.00536467
0.00754749
0.00859895
0.00843013
0.000175079
1.78393e-05
-0.000256944
-0.000580174
-0.00101582
-0.00160289
-0.00232476
-0.00311079
-0.00385302
-0.00442604
-0.00470379
-0.00456598
-0.00390563
-0.00268773
-0.000841558
0.00151335
0.00407238
0.00629384
0.00753497
0.00762746
0.000499131
0.0002209
-0.000161473
-0.000654543
-0.00129729
-0.0020969
-0.00301514
-0.0039686
-0.0048446
-0.00552176
-0.00588897
-0.00585488
-0.00533738
-0.00423178
-0.00255686
-0.000387575
0.00206328
0.00435786
0.00584461
0.00619397
0.000589865
0.000226344
-0.000323127
-0.00104149
-0.00193358
-0.00297104
-0.00408969
-0.00519522
-0.00617754
-0.00692961
-0.00736369
-0.0074106
-0.0069989
-0.00607128
-0.00462847
-0.00270275
-0.000415969
0.00190427
0.00359317
0.00418593
0.00026729
-0.000154453
-0.000842055
-0.00175113
-0.00284807
-0.00407228
-0.0053391
-0.00654705
-0.00759191
-0.00838308
-0.00885495
-0.00895989
-0.0086491
-0.00790055
-0.00671581
-0.00508409
-0.00304173
-0.000794881
0.000988626
0.00179048
-0.000460646
-0.000903417
-0.00166852
-0.00269302
-0.00391507
-0.00524902
-0.00659423
-0.0078445
-0.00890182
-0.00968996
-0.0101614
-0.0102901
-0.0100585
-0.00947714
-0.00855041
-0.00723939
-0.00551458
-0.00344775
-0.00169691
-0.000740061
-0.00143792
-0.00187135
-0.00265946
-0.00372842
-0.00499919
-0.0063696
-0.00772822
-0.00896616
-0.0099909
-0.0107379
-0.0111752
-0.0112981
-0.0111199
-0.0106756
-0.0099765
-0.0089749
-0.00760711
-0.00580503
-0.00420636
-0.00315265
-0.00247257
-0.00288037
-0.00365579
-0.0047181
-0.00598054
-0.00733277
-0.0086582
-0.00984732
-0.0108122
-0.0114977
-0.0118847
-0.0119862
-0.0118382
-0.0114914
-0.0109651
-0.0102197
-0.00919899
-0.00770286
-0.00634122
-0.00524568
-0.00341679
-0.00378394
-0.00452775
-0.00555164
-0.00677009
-0.00807174
-0.00934009
-0.010467
-0.011368
-0.0119941
-0.0123349
-0.0124091
-0.0122802
-0.0119915
-0.0115731
-0.0110031
-0.0102751
-0.00907486
-0.00798599
-0.00688741
-0.00418116
-0.00448864
-0.00518894
-0.00615567
-0.00731085
-0.00854737
-0.00975343
-0.010824
-0.0116764
-0.0122629
-0.0125769
-0.0126444
-0.0125212
-0.0122487
-0.0118796
-0.0113941
-0.010892
-0.00993141
-0.0091028
-0.00800943
-0.00471236
-0.00496579
-0.00560077
-0.0064956
-0.00757547
-0.00874256
-0.00989184
-0.0109211
-0.0117473
-0.0123195
-0.0126264
-0.0126966
-0.0125727
-0.0122901
-0.011935
-0.0114451
-0.011121
-0.0103146
-0.0096987
-0.00858444
-0.00500651
-0.00521399
-0.00577129
-0.00658051
-0.00757551
-0.00867087
-0.00976831
-0.0107673
-0.0115825
-0.0121574
-0.0124719
-0.0125474
-0.0124156
-0.0121212
-0.0117324
-0.0112314
-0.0109735
-0.0102439
-0.00980892
-0.00860392
-0.0051036
-0.00526233
-0.00572527
-0.00643246
-0.0073337
-0.00835565
-0.00940502
-0.010381
-0.0111939
-0.0117804
-0.0121108
-0.0121864
-0.0120465
-0.0117364
-0.0113073
-0.0107762
-0.0104816
-0.00971998
-0.0095273
-0.00804207
-0.00505992
-0.00515855
-0.00549618
-0.00607439
-0.00686918
-0.00781719
-0.0088254
-0.00978859
-0.01061
-0.0112172
-0.0115691
-0.0116542
-0.0115104
-0.0111804
-0.0107057
-0.0101273
-0.00974354
-0.00875428
-0.00896497
-0.00678369
-0.00493497
-0.00495124
-0.00511682
-0.00553006
-0.00620456
-0.00708258
-0.00806319
-0.00903057
-0.00987722
-0.0105199
-0.0109066
-0.0110148
-0.0108759
-0.0105239
-0.00999848
-0.00935596
-0.008828
-0.00759739
-0.00794373
-0.00462646
-0.00478932
-0.00466784
-0.00460608
-0.00482078
-0.00536939
-0.00619151
-0.00716702
-0.00816225
-0.00905577
-0.00975285
-0.0101917
-0.0103418
-0.0102136
-0.00984688
-0.00928007
-0.00856574
-0.00783124
-0.00633464
-0.00621396
-0.00134792
-0.00469214
-0.00428262
-0.00395994
-0.00396243
-0.00440126
-0.00519834
-0.00620144
-0.00725378
-0.00821884
-0.00899105
-0.00950034
-0.00971054
-0.0096162
-0.00925419
-0.00866313
-0.00786818
-0.00683563
-0.00479389
-0.00312763
0.00476216
-0.00465189
-0.00381451
-0.0031787
-0.0029801
-0.00335342
-0.00417102
-0.00523844
-0.00637579
-0.00743335
-0.00829723
-0.00889149
-0.00917545
-0.00913753
-0.00878618
-0.00814402
-0.00723268
-0.00577191
-0.00233057
0.00326913
0.0182138
-0.00513556
-0.00333658
-0.00235453
-0.00202679
-0.00240663
-0.0032944
-0.00445855
-0.00570038
-0.00686003
-0.00781942
-0.00850124
-0.00886446
-0.00889889
-0.00862268
-0.00808852
-0.00724909
-0.00453765
0.00242194
0.0155727
0.0420598
-0.00823491
-0.00207693
-0.000448682
-0.00049589
-0.00114826
-0.00221353
-0.00354156
-0.00493706
-0.00623171
-0.00730693
-0.00808727
-0.00853127
-0.00861837
-0.00830157
-0.00730593
-0.00469035
0.000846244
0.0122904
0.0324432
0.0659066
)
;

boundaryField
{
    movingWall
    {
        type            zeroGradient;
    }
    fixedWalls
    {
        type            zeroGradient;
    }
    frontAndBack
    {
        type            empty;
    }
}


// ************************************************************************* //
