/*--------------------------------*- C++ -*----------------------------------*\
  =========                 |
  \\      /  F ield         | OpenFOAM: The Open Source CFD Toolbox
   \\    /   O peration     | Website:  https://openfoam.org
    \\  /    A nd           | Version:  8
     \\/     M anipulation  |
\*---------------------------------------------------------------------------*/
FoamFile
{
    version     2.0;
    format      ascii;
    class       surfaceScalarField;
    location    "9";
    object      phi;
}
// * * * * * * * * * * * * * * * * * * * * * * * * * * * * * * * * * * * * * //

dimensions      [0 3 -1 0 0 0 0];

internalField   nonuniform List<scalar> 
760
(
2.50412e-07
-2.50413e-07
2.50931e-07
-5.19059e-10
-3.82475e-08
2.89178e-07
-5.92542e-07
5.54295e-07
-1.30711e-06
7.14565e-07
-2.10738e-06
8.00273e-07
-2.93149e-06
8.2411e-07
-3.72803e-06
7.96544e-07
-4.45458e-06
7.26542e-07
-5.07578e-06
6.21204e-07
-5.56126e-06
4.85484e-07
-5.88187e-06
3.20604e-07
-6.00475e-06
1.22882e-07
-5.89077e-06
-1.13983e-07
-5.49544e-06
-3.9533e-07
-4.7794e-06
-7.16035e-07
-3.72357e-06
-1.05584e-06
-2.36604e-06
-1.35752e-06
-9.16113e-07
-1.44993e-06
-9.16113e-07
-2.63917e-07
1.35042e-08
-8.27863e-07
5.63426e-07
-1.58535e-06
1.04666e-06
-2.41557e-06
1.38452e-06
-3.29093e-06
1.58993e-06
-4.16661e-06
1.67595e-06
-4.99783e-06
1.65533e-06
-5.74455e-06
1.54326e-06
-6.37206e-06
1.35405e-06
-6.85092e-06
1.10006e-06
-7.15617e-06
7.90729e-07
-7.2663e-06
4.30744e-07
-7.14385e-06
4.26219e-10
-6.80358e-06
-4.54249e-07
-6.2216e-06
-9.77313e-07
-5.38131e-06
-1.55632e-06
-4.26192e-06
-2.17523e-06
-2.87384e-06
-2.7456e-06
-1.32706e-06
-2.99672e-06
-2.24317e-06
-6.7714e-07
6.90644e-07
-1.50785e-06
1.39413e-06
-2.35109e-06
1.8899e-06
-3.1934e-06
2.22683e-06
-4.00967e-06
2.40619e-06
-4.77059e-06
2.43688e-06
-5.4482e-06
2.33294e-06
-6.01733e-06
2.11239e-06
-6.45765e-06
1.79438e-06
-6.7545e-06
1.39691e-06
-6.89802e-06
9.34245e-07
-6.88011e-06
4.12835e-07
-6.71197e-06
-1.6771e-07
-6.37407e-06
-7.9215e-07
-5.86218e-06
-1.4892e-06
-5.14279e-06
-2.27571e-06
-4.17679e-06
-3.14123e-06
-2.9379e-06
-3.98449e-06
-1.46543e-06
-4.46918e-06
-3.7086e-06
-8.05324e-07
1.49597e-06
-1.69256e-06
2.28136e-06
-2.53064e-06
2.72799e-06
-3.31058e-06
3.00676e-06
-4.02114e-06
3.11675e-06
-4.64649e-06
3.06223e-06
-5.17148e-06
2.85793e-06
-5.58422e-06
2.52513e-06
-5.87768e-06
2.08783e-06
-6.04992e-06
1.56915e-06
-6.1033e-06
9.87632e-07
-6.04366e-06
3.53189e-07
-5.88314e-06
-3.28223e-07
-5.61532e-06
-1.05998e-06
-5.22301e-06
-1.88151e-06
-4.66847e-06
-2.83025e-06
-3.89528e-06
-3.91443e-06
-2.83815e-06
-5.04162e-06
-1.47953e-06
-5.82781e-06
-5.18813e-06
-7.60896e-07
2.25686e-06
-1.59668e-06
3.11715e-06
-2.36469e-06
3.496e-06
-3.05037e-06
3.69244e-06
-3.64613e-06
3.71251e-06
-4.14389e-06
3.55999e-06
-4.53718e-06
3.25122e-06
-4.82305e-06
2.81101e-06
-5.00328e-06
2.26806e-06
-5.08458e-06
1.65046e-06
-5.07823e-06
9.81281e-07
-4.9995e-06
2.74452e-07
-4.86374e-06
-4.63983e-07
-4.67191e-06
-1.2518e-06
-4.40843e-06
-2.14499e-06
-4.03207e-06
-3.20661e-06
-3.47073e-06
-4.47577e-06
-2.62113e-06
-5.89121e-06
-1.41763e-06
-7.03131e-06
-6.60576e-06
-6.28633e-07
2.8855e-06
-1.35475e-06
3.84326e-06
-2.01612e-06
4.15737e-06
-2.59136e-06
4.26769e-06
-3.07313e-06
4.19427e-06
-3.45663e-06
3.9435e-06
-3.73974e-06
3.53433e-06
-3.92392e-06
2.99519e-06
-4.01532e-06
2.35946e-06
-4.02561e-06
1.66074e-06
-3.9725e-06
9.28169e-07
-3.87969e-06
1.81646e-07
-3.76729e-06
-5.76387e-07
-3.64397e-06
-1.37512e-06
-3.4996e-06
-2.28937e-06
-3.29587e-06
-3.41033e-06
-2.9511e-06
-4.82054e-06
-2.32572e-06
-6.51659e-06
-1.30926e-06
-8.04777e-06
-7.91502e-06
-4.57959e-07
3.34346e-06
-1.04532e-06
4.43062e-06
-1.58276e-06
4.69482e-06
-2.04237e-06
4.72729e-06
-2.41629e-06
4.56819e-06
-2.70103e-06
4.22823e-06
-2.89614e-06
3.72944e-06
-3.00456e-06
3.10361e-06
-3.03354e-06
2.38845e-06
-2.99623e-06
1.62343e-06
-2.91296e-06
8.44907e-07
-2.81277e-06
8.14474e-08
-2.71711e-06
-6.72043e-07
-2.6405e-06
-1.45173e-06
-2.5855e-06
-2.34436e-06
-2.52766e-06
-3.46818e-06
-2.3869e-06
-4.9613e-06
-1.98777e-06
-6.91572e-06
-1.17415e-06
-8.86139e-06
-9.08917e-06
-2.76064e-07
3.61952e-06
-7.12697e-07
4.86726e-06
-1.12128e-06
5.1034e-06
-1.46699e-06
5.073e-06
-1.74181e-06
4.84302e-06
-1.94326e-06
4.42968e-06
-2.07198e-06
3.85816e-06
-2.13148e-06
3.16311e-06
-2.12858e-06
2.38554e-06
-2.075e-06
1.56985e-06
-1.98862e-06
7.58537e-07
-1.8968e-06
-1.03784e-08
-1.81396e-06
-7.54885e-07
-1.75803e-06
-1.50766e-06
-1.74984e-06
-2.35254e-06
-1.79276e-06
-3.42525e-06
-1.82525e-06
-4.92882e-06
-1.63892e-06
-7.10205e-06
-1.03013e-06
-9.47017e-06
-1.01193e-05
-1.02869e-07
3.72239e-06
-3.82408e-07
5.1468e-06
-6.63842e-07
5.38484e-06
-9.00328e-07
5.30948e-06
-1.08402e-06
5.02671e-06
-1.21395e-06
4.55961e-06
-1.29251e-06
3.93672e-06
-1.3244e-06
3.195e-06
-1.31613e-06
2.37727e-06
-1.2759e-06
1.52962e-06
-1.21567e-06
6.98303e-07
-1.14699e-06
-7.90585e-08
-1.08954e-06
-8.12333e-07
-1.044e-06
-1.5532e-06
-1.04831e-06
-2.34823e-06
-1.14113e-06
-3.33243e-06
-1.30299e-06
-4.76696e-06
-1.30352e-06
-7.10152e-06
-8.89979e-07
-9.88372e-06
-1.10093e-05
4.87809e-08
3.67361e-06
-7.41067e-08
5.26968e-06
-2.29696e-07
5.54043e-06
-3.61655e-07
5.44144e-06
-4.58955e-07
5.12401e-06
-5.22396e-07
4.62305e-06
-5.56851e-07
3.97118e-06
-5.69299e-07
3.20744e-06
-5.67858e-07
2.37583e-06
-5.60128e-07
1.52189e-06
-5.48668e-07
6.86843e-07
-5.26193e-07
-1.01533e-07
-4.98251e-07
-8.40275e-07
-4.73453e-07
-1.578e-06
-4.90561e-07
-2.33113e-06
-5.96276e-07
-3.22671e-06
-8.41752e-07
-4.52148e-06
-9.97722e-07
-6.94555e-06
-7.61098e-07
-1.01203e-05
-1.17704e-05
1.72366e-07
3.50124e-06
2.01273e-07
5.24078e-06
1.67826e-07
5.57387e-06
1.36933e-07
5.47233e-06
1.24836e-07
5.13611e-06
1.2942e-07
4.61846e-06
1.42975e-07
3.95763e-06
1.55748e-07
3.19467e-06
1.57966e-07
2.37361e-06
1.42036e-07
1.53782e-06
1.08401e-07
7.20479e-07
7.44706e-08
-6.76031e-08
5.4712e-08
-8.20516e-07
2.33841e-08
-1.54667e-06
-1.84417e-08
-2.2893e-06
-1.62801e-07
-3.08235e-06
-4.44438e-07
-4.23985e-06
-7.25632e-07
-6.66436e-06
-6.44666e-07
-1.02013e-05
-1.2415e-05
2.72095e-07
3.22915e-06
4.31705e-07
5.08117e-06
5.16298e-07
5.48928e-06
5.87764e-07
5.40087e-06
6.64574e-07
5.0593e-06
7.42797e-07
4.54024e-06
8.11409e-07
3.88901e-06
8.58234e-07
3.14785e-06
8.7299e-07
2.35886e-06
8.49955e-07
1.56085e-06
7.90273e-07
7.80161e-07
7.04225e-07
1.84451e-08
6.14071e-07
-7.30362e-07
5.11704e-07
-1.4443e-06
3.80772e-07
-2.15837e-06
1.98056e-07
-2.89964e-06
-8.75054e-08
-3.95429e-06
-4.79423e-07
-6.27244e-06
-5.37374e-07
-1.01434e-05
-1.29524e-05
3.44769e-07
2.88438e-06
6.1166e-07
4.81427e-06
8.05154e-07
5.29579e-06
9.77683e-07
5.22834e-06
1.14578e-06
4.89121e-06
1.30277e-06
4.38325e-06
1.43441e-06
3.75737e-06
1.52641e-06
3.05584e-06
1.56829e-06
2.31698e-06
1.55599e-06
1.57315e-06
1.4917e-06
8.4445e-07
1.37517e-06
1.34976e-07
1.21344e-06
-5.68638e-07
1.01891e-06
-1.24977e-06
7.88556e-07
-1.92802e-06
5.23234e-07
-2.63431e-06
1.99117e-07
-3.63017e-06
-2.49625e-07
-5.8237e-06
-4.35089e-07
-9.95789e-06
-1.33875e-05
3.83136e-07
2.50124e-06
7.29543e-07
4.46787e-06
1.02221e-06
5.00312e-06
1.29667e-06
4.95387e-06
1.561e-06
4.62688e-06
1.80337e-06
4.14088e-06
2.00603e-06
3.55472e-06
2.1528e-06
2.90907e-06
2.23259e-06
2.23718e-06
2.24051e-06
1.56523e-06
2.17568e-06
9.09279e-07
2.03631e-06
2.74353e-07
1.82326e-06
-3.55594e-07
1.55021e-06
-9.76712e-07
1.2217e-06
-1.59951e-06
8.46875e-07
-2.25949e-06
4.41213e-07
-3.22451e-06
-5.28833e-08
-5.3296e-06
-3.2122e-07
-9.68956e-06
-1.37087e-05
3.72409e-07
2.12883e-06
7.66271e-07
4.07401e-06
1.15053e-06
4.61886e-06
1.53201e-06
4.5724e-06
1.90147e-06
4.25742e-06
2.23829e-06
3.80405e-06
2.52076e-06
3.27225e-06
2.73126e-06
2.69857e-06
2.85822e-06
2.11022e-06
2.89588e-06
1.52757e-06
2.84147e-06
9.63689e-07
2.69112e-06
4.24704e-07
2.44021e-06
-1.04682e-07
2.10525e-06
-6.41754e-07
1.68987e-06
-1.18413e-06
1.2086e-06
-1.77822e-06
6.99961e-07
-2.71587e-06
2.18549e-07
-4.84819e-06
-1.15781e-07
-9.35523e-06
-1.38245e-05
2.78463e-07
1.85037e-06
6.95522e-07
3.65695e-06
1.17122e-06
4.14316e-06
1.67246e-06
4.07116e-06
2.16104e-06
3.76884e-06
2.60393e-06
3.36116e-06
2.97571e-06
2.90048e-06
3.25836e-06
2.41592e-06
3.44071e-06
1.92787e-06
3.51718e-06
1.4511e-06
3.4854e-06
9.95462e-07
3.34362e-06
5.66485e-07
3.08208e-06
1.56856e-07
2.70162e-06
-2.61293e-07
2.21584e-06
-6.98342e-07
1.64046e-06
-1.20285e-06
1.04505e-06
-2.12046e-06
5.77069e-07
-4.38021e-06
1.60565e-07
-8.93872e-06
-1.36639e-05
4.67582e-08
1.80361e-06
4.82377e-07
3.22133e-06
1.06934e-06
3.5562e-06
1.71586e-06
3.42463e-06
2.34208e-06
3.14263e-06
2.90354e-06
2.79969e-06
3.37375e-06
2.43026e-06
3.7362e-06
2.05348e-06
3.98159e-06
1.68248e-06
4.10595e-06
1.32674e-06
4.10861e-06
9.928e-07
3.99053e-06
6.84571e-07
3.74596e-06
4.01422e-07
3.3609e-06
1.23765e-07
2.84396e-06
-1.81401e-07
2.22694e-06
-5.85819e-07
1.62118e-06
-1.51471e-06
1.15734e-06
-3.91636e-06
5.51689e-07
-8.33307e-06
-1.31123e-05
-4.21888e-07
2.2255e-06
7.9434e-08
2.72001e-06
8.62281e-07
2.77336e-06
1.69538e-06
2.59154e-06
2.48037e-06
2.35763e-06
3.17344e-06
2.10663e-06
3.75291e-06
1.85079e-06
4.20681e-06
1.59958e-06
4.53e-06
1.35929e-06
4.72228e-06
1.13446e-06
4.78654e-06
9.28543e-07
4.72735e-06
7.43756e-07
4.54825e-06
5.80529e-07
4.23808e-06
4.33934e-07
3.79601e-06
2.60668e-07
3.33396e-06
-1.23777e-07
2.92016e-06
-1.1009e-06
2.38359e-06
-3.3798e-06
1.32535e-06
-7.27483e-06
-1.17869e-05
-9.37275e-07
3.16277e-06
-2.17294e-07
2.00003e-06
9.20667e-07
1.6354e-06
2.01404e-06
1.49816e-06
3.00059e-06
1.37108e-06
3.86968e-06
1.23754e-06
4.61081e-06
1.10966e-06
5.21995e-06
9.90445e-07
5.69941e-06
8.79824e-07
6.05563e-06
7.7824e-07
6.29787e-06
6.86303e-07
6.43772e-06
6.0391e-07
6.49004e-06
5.28211e-07
6.48049e-06
4.43479e-07
6.45466e-06
2.86501e-07
6.40709e-06
-7.62116e-08
6.31093e-06
-1.00474e-06
5.46792e-06
-2.53679e-06
3.24488e-06
-5.05179e-06
-8.54203e-06
3.16277e-06
5.1628e-06
6.79819e-06
8.29636e-06
9.66744e-06
1.0905e-05
1.20146e-05
1.30051e-05
1.38849e-05
1.46631e-05
1.53494e-05
1.59534e-05
1.64816e-05
1.6925e-05
1.72115e-05
1.71353e-05
1.61306e-05
1.35938e-05
8.54203e-06
)
;

boundaryField
{
    movingWall
    {
        type            calculated;
        value           uniform 0;
    }
    fixedWalls
    {
        type            calculated;
        value           uniform 0;
    }
    frontAndBack
    {
        type            empty;
        value           nonuniform List<scalar> 0();
    }
}


// ************************************************************************* //
