/*--------------------------------*- C++ -*----------------------------------*\
  =========                 |
  \\      /  F ield         | OpenFOAM: The Open Source CFD Toolbox
   \\    /   O peration     | Website:  https://openfoam.org
    \\  /    A nd           | Version:  8
     \\/     M anipulation  |
\*---------------------------------------------------------------------------*/
FoamFile
{
    version     2.0;
    format      ascii;
    class       volVectorField;
    location    "9";
    object      U;
}
// * * * * * * * * * * * * * * * * * * * * * * * * * * * * * * * * * * * * * //

dimensions      [0 1 -1 0 0 0 0];

internalField   nonuniform List<vector> 
400
(
(0.00307157 -0.00402822 0)
(0.00621032 -0.0037085 0)
(0.00398292 -0.00101655 0)
(-0.00527628 0.00333767 0)
(-0.0183573 0.00617715 0)
(-0.0340426 0.00790951 0)
(-0.0506641 0.00875727 0)
(-0.0671304 0.00891217 0)
(-0.0825426 0.0085368 0)
(-0.0961593 0.00774744 0)
(-0.107349 0.00661221 0)
(-0.115511 0.00513691 0)
(-0.120002 0.00324744 0)
(-0.120181 0.000779458 0)
(-0.115054 -0.00253955 0)
(-0.103581 -0.00647691 0)
(-0.0853442 -0.0107061 0)
(-0.0609575 -0.0143875 0)
(-0.0330446 -0.0151233 0)
(-0.00764002 -0.00715624 0)
(-0.000706501 -0.00575994 0)
(-0.0101688 0.00378235 0)
(-0.0235012 0.0133436 0)
(-0.0394967 0.0197412 0)
(-0.056927 0.0235375 0)
(-0.0747968 0.0253161 0)
(-0.092146 0.0253797 0)
(-0.108139 0.0239925 0)
(-0.122037 0.0213861 0)
(-0.133218 0.0177547 0)
(-0.141164 0.0132397 0)
(-0.145392 0.00789296 0)
(-0.145372 0.00162275 0)
(-0.140595 -0.0058203 0)
(-0.13119 -0.0142126 0)
(-0.116756 -0.0234891 0)
(-0.0968177 -0.0332419 0)
(-0.0715277 -0.0418865 0)
(-0.04266 -0.0447769 0)
(-0.0138275 -0.0305485 0)
(-0.0062303 0.0066121 0)
(-0.0218728 0.0198012 0)
(-0.0384149 0.0296255 0)
(-0.0554503 0.0364525 0)
(-0.0722676 0.0403585 0)
(-0.0882615 0.0415689 0)
(-0.102831 0.040356 0)
(-0.115432 0.0370346 0)
(-0.125606 0.031924 0)
(-0.133012 0.0253148 0)
(-0.13743 0.0174334 0)
(-0.138739 0.00839887 0)
(-0.136798 -0.00181313 0)
(-0.131613 -0.0131963 0)
(-0.123119 -0.025712 0)
(-0.110743 -0.0395977 0)
(-0.0937076 -0.0545361 0)
(-0.0714788 -0.0685295 0)
(-0.04494 -0.0754209 0)
(-0.0160674 -0.0595865 0)
(-0.00781667 0.022051 0)
(-0.025342 0.0369839 0)
(-0.0424709 0.0464242 0)
(-0.0587488 0.0526399 0)
(-0.0737843 0.0556056 0)
(-0.0872704 0.0554184 0)
(-0.0988718 0.05235 0)
(-0.108304 0.0467848 0)
(-0.115371 0.0391486 0)
(-0.119994 0.0298477 0)
(-0.122219 0.0192098 0)
(-0.122156 0.00743245 0)
(-0.119792 -0.00541902 0)
(-0.115518 -0.0193151 0)
(-0.108981 -0.0347981 0)
(-0.0995676 -0.0523994 0)
(-0.0862482 -0.0720268 0)
(-0.0677977 -0.0916546 0)
(-0.0444368 -0.104047 0)
(-0.0161382 -0.0895946 0)
(-0.00716483 0.0376803 0)
(-0.0240289 0.0541413 0)
(-0.0400584 0.0624661 0)
(-0.0546689 0.0672954 0)
(-0.0675546 0.0686555 0)
(-0.0785547 0.0666149 0)
(-0.087503 0.0614796 0)
(-0.0942925 0.0537094 0)
(-0.0989055 0.0438302 0)
(-0.101439 0.0323509 0)
(-0.102117 0.0196863 0)
(-0.101211 0.00609896 0)
(-0.0988557 -0.0083409 0)
(-0.0956705 -0.0238305 0)
(-0.0912264 -0.0412683 0)
(-0.0849802 -0.0616474 0)
(-0.0757048 -0.0853694 0)
(-0.0614304 -0.11079 0)
(-0.0421293 -0.12983 0)
(-0.0150069 -0.118811 0)
(-0.00544718 0.0516715 0)
(-0.0202488 0.0698463 0)
(-0.0342149 0.0768169 0)
(-0.0466606 0.079927 0)
(-0.0572775 0.0794171 0)
(-0.0659617 0.0753858 0)
(-0.0726306 0.0681876 0)
(-0.0772685 0.0583573 0)
(-0.0799455 0.0465164 0)
(-0.0808474 0.033279 0)
(-0.0802969 0.0191633 0)
(-0.0787035 0.00451203 0)
(-0.076429 -0.0106242 0)
(-0.0742249 -0.0267119 0)
(-0.0716657 -0.0450668 0)
(-0.0683977 -0.0672163 0)
(-0.0632009 -0.0942928 0)
(-0.0531974 -0.125491 0)
(-0.0387251 -0.152063 0)
(-0.0132026 -0.146152 0)
(-0.00332932 0.0627419 0)
(-0.0153438 0.0831295 0)
(-0.0267638 0.0888922 0)
(-0.0368278 0.0903122 0)
(-0.0452027 0.0879695 0)
(-0.0518056 0.0820328 0)
(-0.0565899 0.072915 0)
(-0.0595745 0.0612245 0)
(-0.0608548 0.0476788 0)
(-0.0606346 0.033014 0)
(-0.0592583 0.0178842 0)
(-0.057212 0.00273015 0)
(-0.0550828 -0.0124364 0)
(-0.053525 -0.0283413 0)
(-0.0522889 -0.0466458 0)
(-0.0513498 -0.069454 0)
(-0.0499458 -0.0988858 0)
(-0.0439214 -0.135583 0)
(-0.0348251 -0.170302 0)
(-0.0110481 -0.170951 0)
(-0.00117633 0.0702587 0)
(-0.0100588 0.0935035 0)
(-0.0187509 0.0984309 0)
(-0.0264012 0.0984032 0)
(-0.0326439 0.0944606 0)
(-0.037416 0.0868679 0)
(-0.0406948 0.0761001 0)
(-0.0425185 0.0628284 0)
(-0.0429835 0.0478514 0)
(-0.0422722 0.0320194 0)
(-0.0406804 0.0161252 0)
(-0.0386388 0.000719352 0)
(-0.036858 -0.0141089 0)
(-0.0355643 -0.0294163 0)
(-0.0349457 -0.0469027 0)
(-0.0352694 -0.0691874 0)
(-0.0370808 -0.0996293 0)
(-0.0343594 -0.141218 0)
(-0.0309068 -0.184402 0)
(-0.00873987 -0.192903 0)
(0.000743938 0.0740826 0)
(-0.0048544 0.100817 0)
(-0.0107703 0.10539 0)
(-0.0160746 0.104257 0)
(-0.020311 0.0990564 0)
(-0.0234513 0.0901703 0)
(-0.0255066 0.0781364 0)
(-0.026546 0.0636755 0)
(-0.0266762 0.0476392 0)
(-0.0260546 0.030954 0)
(-0.0248796 0.0145198 0)
(-0.0232622 -0.00102086 0)
(-0.0222335 -0.0156319 0)
(-0.0211207 -0.0304835 0)
(-0.0207582 -0.0468213 0)
(-0.0211922 -0.0675566 0)
(-0.0254852 -0.0973531 0)
(-0.0251086 -0.142845 0)
(-0.0273162 -0.194481 0)
(-0.00640023 -0.211999 0)
(0.00219712 0.0745496 0)
(-5.99843e-05 0.104941 0)
(-0.00318955 0.109857 0)
(-0.00624335 0.107991 0)
(-0.00856631 0.101903 0)
(-0.010173 0.0921364 0)
(-0.0111163 0.0792916 0)
(-0.0115165 0.0641215 0)
(-0.0115157 0.0474898 0)
(-0.0112731 0.0303186 0)
(-0.0109534 0.0135286 0)
(-0.0105438 -0.00211389 0)
(-0.0101251 -0.0167767 0)
(-0.00943042 -0.0314666 0)
(-0.00962996 -0.0468305 0)
(-0.00953179 -0.0655102 0)
(-0.015627 -0.0930821 0)
(-0.0165294 -0.141112 0)
(-0.0242385 -0.20085 0)
(-0.00408553 -0.228414 0)
(0.00321964 0.072374 0)
(0.00403538 0.105843 0)
(0.00366403 0.111792 0)
(0.00282611 0.1097 0)
(0.00237935 0.103099 0)
(0.00232117 0.0928358 0)
(0.00254861 0.0796076 0)
(0.00287761 0.0642151 0)
(0.00311839 0.0475429 0)
(0.0031018 0.0304877 0)
(0.00274358 0.0137999 0)
(0.00182936 -0.00210025 0)
(0.00134544 -0.0170466 0)
(0.00110765 -0.0316197 0)
(-0.000315566 -0.046477 0)
(-0.000116042 -0.0631733 0)
(-0.00755674 -0.087749 0)
(-0.0087109 -0.136667 0)
(-0.0216824 -0.20389 0)
(-0.00178001 -0.242407 0)
(0.00392214 0.0678759 0)
(0.00739926 0.103901 0)
(0.00954271 0.111257 0)
(0.0108898 0.109281 0)
(0.0123367 0.102441 0)
(0.0139039 0.0920094 0)
(0.0154273 0.078812 0)
(0.0166607 0.0636839 0)
(0.0173739 0.0474959 0)
(0.0173977 0.0310796 0)
(0.0167371 0.0150253 0)
(0.0151462 -0.000674444 0)
(0.0134354 -0.0157897 0)
(0.0115984 -0.030281 0)
(0.00875592 -0.044841 0)
(0.00762065 -0.0599861 0)
(-0.0010435 -0.0817116 0)
(-0.00150033 -0.129921 0)
(-0.0194976 -0.203966 0)
(0.000596665 -0.254233 0)
(0.00431104 0.0615832 0)
(0.00995853 0.0995279 0)
(0.0142887 0.108434 0)
(0.0177469 0.106838 0)
(0.0211155 0.100005 0)
(0.0243938 0.0896846 0)
(0.0273452 0.0768549 0)
(0.0296646 0.0623649 0)
(0.0310917 0.0470259 0)
(0.0314611 0.0315533 0)
(0.0307632 0.0163988 0)
(0.0291853 0.00152338 0)
(0.0262042 -0.013069 0)
(0.0227007 -0.027165 0)
(0.0181719 -0.0411986 0)
(0.0147102 -0.0557281 0)
(0.00433082 -0.0760032 0)
(0.00522911 -0.120951 0)
(-0.0174554 -0.201531 0)
(0.00320012 -0.264056 0)
(0.00430157 0.0541222 0)
(0.0115194 0.093232 0)
(0.0176551 0.103512 0)
(0.0231472 0.102379 0)
(0.028507 0.0957243 0)
(0.0336166 0.0857478 0)
(0.0381433 0.0735765 0)
(0.0417247 0.060047 0)
(0.0440746 0.0458804 0)
(0.0450205 0.0316617 0)
(0.0445157 0.0177429 0)
(0.0427372 0.00416997 0)
(0.0390182 -0.00925201 0)
(0.0341951 -0.0223863 0)
(0.0280634 -0.0355081 0)
(0.0221206 -0.0492598 0)
(0.0093556 -0.0688756 0)
(0.0113623 -0.111139 0)
(-0.0152371 -0.197185 0)
(0.00640065 -0.271779 0)
(0.00367848 0.0462924 0)
(0.0117203 0.0855938 0)
(0.0192767 0.0966785 0)
(0.0267879 0.0958488 0)
(0.0342937 0.0894532 0)
(0.0414217 0.0800293 0)
(0.0477054 0.068795 0)
(0.0527286 0.0565375 0)
(0.0561886 0.0438683 0)
(0.0579062 0.0312531 0)
(0.0578056 0.0189818 0)
(0.0560083 0.00715567 0)
(0.0518379 -0.00460675 0)
(0.0460211 -0.0162368 0)
(0.0385131 -0.0279609 0)
(0.0301952 -0.0405775 0)
(0.0154341 -0.0596417 0)
(0.0168185 -0.101732 0)
(-0.0121401 -0.190975 0)
(0.0109833 -0.276937 0)
(0.00188626 0.0393131 0)
(0.00988595 0.0772488 0)
(0.0186806 0.0880567 0)
(0.0283726 0.0871007 0)
(0.0383064 0.0809743 0)
(0.0477171 0.0723243 0)
(0.0559728 0.0623289 0)
(0.0626188 0.0516694 0)
(0.0673568 0.0408305 0)
(0.0700183 0.0301658 0)
(0.070527 0.0199065 0)
(0.068924 0.0101729 0)
(0.0650189 0.000720694 0)
(0.0584812 -0.00892986 0)
(0.0498763 -0.018835 0)
(0.0394227 -0.0299759 0)
(0.023434 -0.0485844 0)
(0.0231019 -0.0928437 0)
(-0.00662714 -0.18474 0)
(0.0178473 -0.278833 0)
(-0.00218965 0.0347681 0)
(0.00467564 0.0691174 0)
(0.0154286 0.0776641 0)
(0.0277672 0.075837 0)
(0.0405593 0.0699728 0)
(0.0525675 0.0623662 0)
(0.0630131 0.0539489 0)
(0.0714478 0.0452246 0)
(0.0776141 0.0365344 0)
(0.0813819 0.028122 0)
(0.0827064 0.0201512 0)
(0.0816053 0.0127177 0)
(0.0781722 0.00575944 0)
(0.0718501 -0.00133893 0)
(0.0627156 -0.00912041 0)
(0.0508561 -0.0183044 0)
(0.035172 -0.0365833 0)
(0.0336783 -0.0846219 0)
(0.00374043 -0.177204 0)
(0.028302 -0.274947 0)
(-0.00860653 0.0397372 0)
(-0.00588074 0.0601295 0)
(0.00954212 0.0650132 0)
(0.025507 0.0617887 0)
(0.0417525 0.0564346 0)
(0.0566974 0.0503032 0)
(0.0695661 0.0439045 0)
(0.0800069 0.037515 0)
(0.0878574 0.0313216 0)
(0.0930688 0.0254631 0)
(0.0956709 0.0200405 0)
(0.0957416 0.0151202 0)
(0.0933783 0.0107219 0)
(0.0886366 0.00674076 0)
(0.0809752 0.00270968 0)
(0.0695809 -0.00338228 0)
(0.0587519 -0.0244664 0)
(0.0576359 -0.0761228 0)
(0.026236 -0.161773 0)
(0.0463101 -0.254713 0)
(-0.015009 0.0559827 0)
(-0.0168772 0.0452473 0)
(0.00762092 0.0416466 0)
(0.0294514 0.039372 0)
(0.0501641 0.0362687 0)
(0.0688955 0.0326849 0)
(0.0851383 0.0290442 0)
(0.0987327 0.0255288 0)
(0.109674 0.0222122 0)
(0.118057 0.0191453 0)
(0.124042 0.0163675 0)
(0.127842 0.0138957 0)
(0.129723 0.0116893 0)
(0.130042 0.00946482 0)
(0.129024 0.00581568 0)
(0.124557 -0.00408555 0)
(0.125398 -0.0262495 0)
(0.122508 -0.0652264 0)
(0.0835398 -0.126176 0)
(0.0835062 -0.200128 0)
(0.0657961 0.0564094 0)
(0.0806803 0.0405446 0)
(0.117802 0.0305025 0)
(0.15118 0.0253028 0)
(0.18018 0.0219983 0)
(0.206179 0.0194754 0)
(0.229632 0.0174224 0)
(0.250649 0.0157045 0)
(0.269356 0.0142359 0)
(0.285924 0.0129629 0)
(0.300544 0.0118515 0)
(0.313409 0.0108741 0)
(0.324663 0.00998972 0)
(0.334223 0.0090583 0)
(0.341508 0.00746985 0)
(0.345204 0.00347901 0)
(0.336213 -0.00443806 0)
(0.305012 -0.0193276 0)
(0.231253 -0.0491704 0)
(0.167748 -0.105239 0)
)
;

boundaryField
{
    movingWall
    {
        type            fixedValue;
        value           uniform (1 0 0);
    }
    fixedWalls
    {
        type            noSlip;
    }
    frontAndBack
    {
        type            empty;
    }
}


// ************************************************************************* //
