/*--------------------------------*- C++ -*----------------------------------*\
  =========                 |
  \\      /  F ield         | OpenFOAM: The Open Source CFD Toolbox
   \\    /   O peration     | Website:  https://openfoam.org
    \\  /    A nd           | Version:  8
     \\/     M anipulation  |
\*---------------------------------------------------------------------------*/
FoamFile
{
    version     2.0;
    format      ascii;
    class       volScalarField;
    location    "6.5";
    object      p;
}
// * * * * * * * * * * * * * * * * * * * * * * * * * * * * * * * * * * * * * //

dimensions      [0 2 -2 0 0 0 0];

internalField   nonuniform List<scalar> 
400
(
1.95095e-08
-0.000179406
-0.000384579
-0.000628084
-0.000998869
-0.00150534
-0.00213602
-0.00282737
-0.00347778
-0.00396483
-0.00415875
-0.00392913
-0.00315759
-0.00177343
0.000222105
0.00271364
0.00535945
0.00753547
0.00858396
0.00841578
0.00017286
1.79985e-05
-0.000253987
-0.000574469
-0.00100566
-0.00158646
-0.00230111
-0.0030801
-0.00381654
-0.00438587
-0.00466254
-0.00452653
-0.00387083
-0.00266015
-0.000823118
0.00152215
0.00407218
0.00628662
0.007524
0.00761627
0.000494089
0.000219126
-0.000158921
-0.000646797
-0.00128308
-0.0020751
-0.00298538
-0.0039315
-0.00480176
-0.00547542
-0.00584174
-0.00580955
-0.00529694
-0.00419872
-0.00253238
-0.000372201
0.00207002
0.00435748
0.00583986
0.0061883
0.000584409
0.000225364
-0.000318143
-0.00102924
-0.00191305
-0.00294174
-0.00405195
-0.00515016
-0.00612701
-0.00687595
-0.00730942
-0.00735836
-0.00695145
-0.00603093
-0.0045964
-0.00267932
-0.000400757
0.00191243
0.0035966
0.00418787
0.000265618
-0.000151181
-0.000831756
-0.00173228
-0.00281983
-0.00403463
-0.00529279
-0.00649354
-0.00753321
-0.00832151
-0.00879295
-0.00889999
-0.00859385
-0.00785205
-0.00667529
-0.00505182
-0.00301723
-0.00077719
0.00100151
0.00180145
-0.000455254
-0.000893168
-0.00165092
-0.00266634
-0.00387857
-0.00520287
-0.00653941
-0.0077826
-0.00883485
-0.00962016
-0.0100912
-0.0102217
-0.00999441
-0.00941952
-0.00850066
-0.00719773
-0.00548034
-0.00342007
-0.00167398
-0.000719349
-0.0014241
-0.001853
-0.00263385
-0.0036937
-0.0049546
-0.00631535
-0.00766535
-0.00889622
-0.00991575
-0.0106596
-0.0110959
-0.0112203
-0.0110461
-0.010608
-0.00991681
-0.00892342
-0.00756297
-0.00576735
-0.00417343
-0.00312218
-0.00245065
-0.00285429
-0.00362269
-0.00467605
-0.00592874
-0.00727138
-0.00858815
-0.00977003
-0.0107293
-0.0114109
-0.0117964
-0.0118995
-0.0117548
-0.0114136
-0.0108953
-0.0101585
-0.00914526
-0.00765572
-0.00629898
-0.00520613
-0.00338826
-0.00375163
-0.00448863
-0.00550378
-0.0067126
-0.00800468
-0.00926425
-0.0103837
-0.0112787
-0.0119005
-0.0122389
-0.0123128
-0.0121871
-0.0119044
-0.0114943
-0.0109333
-0.010213
-0.00901955
-0.00793588
-0.00684022
-0.00414819
-0.00445233
-0.00514598
-0.00610413
-0.00724975
-0.00847662
-0.0096737
-0.0107365
-0.0115824
-0.0121641
-0.0124752
-0.0125422
-0.0124219
-0.0121553
-0.0117945
-0.0113178
-0.0108239
-0.00987013
-0.00904713
-0.00795686
-0.00467743
-0.00492802
-0.00555652
-0.00644291
-0.00751324
-0.0086706
-0.00981069
-0.0108318
-0.0116513
-0.0122183
-0.0125223
-0.0125919
-0.0124707
-0.012194
-0.011847
-0.0113653
-0.0110502
-0.0102506
-0.00964067
-0.00852953
-0.00497211
-0.00517717
-0.00572826
-0.00652922
-0.00751476
-0.00860032
-0.00968839
-0.0106791
-0.0114873
-0.012057
-0.0123687
-0.0124437
-0.0123147
-0.0120262
-0.0116452
-0.0111532
-0.0109034
-0.0101814
-0.0097521
-0.00855002
-0.00507184
-0.00522855
-0.00568568
-0.0063849
-0.00727684
-0.008289
-0.00932888
-0.0102963
-0.0111022
-0.0116836
-0.0120112
-0.012087
-0.0119502
-0.0116462
-0.0112252
-0.0107031
-0.0104168
-0.00966436
-0.00947431
-0.00799274
-0.00503226
-0.00512934
-0.00546183
-0.0060326
-0.0068184
-0.00775671
-0.00875535
-0.0097099
-0.0105242
-0.0111263
-0.0114757
-0.0115613
-0.0114212
-0.0110976
-0.0106314
-0.0100624
-0.00968813
-0.00870987
-0.00891835
-0.00674404
-0.00491214
-0.00492744
-0.00508897
-0.0054957
-0.00616173
-0.00703018
-0.00800113
-0.00895966
-0.00979902
-0.0104366
-0.0108209
-0.01093
-0.0107952
-0.01045
-0.00993364
-0.00930129
-0.00878463
-0.0075633
-0.00791284
-0.00460262
-0.00477137
-0.00464957
-0.00458547
-0.00479502
-0.00533587
-0.00614858
-0.00711425
-0.00810032
-0.00898626
-0.00967804
-0.0101145
-0.0102657
-0.0101416
-0.00978201
-0.00922502
-0.00852226
-0.00780108
-0.0063145
-0.00620356
-0.0013391
-0.00467869
-0.00426972
-0.00394704
-0.00394604
-0.00437783
-0.00516553
-0.00615846
-0.00720118
-0.00815817
-0.00892467
-0.00943127
-0.00964224
-0.00955225
-0.00919756
-0.00861706
-0.00783541
-0.00681879
-0.00479089
-0.00313655
0.00475099
-0.00464165
-0.00380821
-0.00317387
-0.00297345
-0.00334015
-0.00414809
-0.00520481
-0.0063319
-0.00738077
-0.00823839
-0.00882949
-0.00911383
-0.00907998
-0.00873622
-0.008104
-0.00720593
-0.00576617
-0.00234428
0.00324113
0.0181824
-0.0051309
-0.00333712
-0.00235814
-0.00202951
-0.00240224
-0.00327971
-0.00443246
-0.0056633
-0.00681354
-0.00776603
-0.00844412
-0.00880721
-0.00884527
-0.00857639
-0.00805343
-0.00723472
-0.00454421
0.00239511
0.0155315
0.0420143
-0.00823347
-0.00208385
-0.000459095
-0.000504237
-0.00114909
-0.00220359
-0.00351967
-0.00490358
-0.00618822
-0.00725594
-0.00803198
-0.00847535
-0.00856579
-0.00825672
-0.00727449
-0.00467582
0.000836682
0.0122611
0.0324015
0.0658597
)
;

boundaryField
{
    movingWall
    {
        type            zeroGradient;
    }
    fixedWalls
    {
        type            zeroGradient;
    }
    frontAndBack
    {
        type            empty;
    }
}


// ************************************************************************* //
