/*--------------------------------*- C++ -*----------------------------------*\
  =========                 |
  \\      /  F ield         | OpenFOAM: The Open Source CFD Toolbox
   \\    /   O peration     | Website:  https://openfoam.org
    \\  /    A nd           | Version:  8
     \\/     M anipulation  |
\*---------------------------------------------------------------------------*/
FoamFile
{
    version     2.0;
    format      ascii;
    class       surfaceScalarField;
    location    "6.5";
    object      phi;
}
// * * * * * * * * * * * * * * * * * * * * * * * * * * * * * * * * * * * * * //

dimensions      [0 3 -1 0 0 0 0];

internalField   nonuniform List<scalar> 
760
(
2.48439e-07
-2.48441e-07
2.50235e-07
-1.79617e-09
-3.54251e-08
2.8566e-07
-5.85198e-07
5.49773e-07
-1.2956e-06
7.10403e-07
-2.09245e-06
7.96846e-07
-2.91396e-06
8.21512e-07
-3.70873e-06
7.94773e-07
-4.43429e-06
7.25562e-07
-5.05525e-06
6.20959e-07
-5.54116e-06
4.85907e-07
-5.86279e-06
3.21633e-07
-5.98725e-06
1.24451e-07
-5.8754e-06
-1.11842e-07
-5.48261e-06
-3.92789e-07
-4.76932e-06
-7.13296e-07
-3.71631e-06
-1.05301e-06
-2.36161e-06
-1.3547e-06
-9.14318e-07
-1.44729e-06
-9.14319e-07
-2.60756e-07
1.23145e-08
-8.20517e-07
5.57966e-07
-1.57446e-06
1.0396e-06
-2.40168e-06
1.37699e-06
-3.27425e-06
1.58297e-06
-4.1476e-06
1.6702e-06
-4.97716e-06
1.65107e-06
-5.72294e-06
1.54055e-06
-6.35023e-06
1.35285e-06
-6.82954e-06
1.10027e-06
-7.13585e-06
7.92213e-07
-7.24761e-06
4.33389e-07
-7.12722e-06
4.06185e-09
-6.78919e-06
-4.49871e-07
-6.20952e-06
-9.72457e-07
-5.37165e-06
-1.55117e-06
-4.25473e-06
-2.16993e-06
-2.86913e-06
-2.74029e-06
-1.32477e-06
-2.99165e-06
-2.23909e-06
-6.72071e-07
6.84386e-07
-1.49897e-06
1.38487e-06
-2.33897e-06
1.8796e-06
-3.17867e-06
2.21669e-06
-3.99287e-06
2.39718e-06
-4.75228e-06
2.42961e-06
-5.42894e-06
2.32773e-06
-5.9977e-06
2.10931e-06
-6.43821e-06
1.79337e-06
-6.73574e-06
1.3978e-06
-6.88035e-06
9.36826e-07
-6.86386e-06
4.16899e-07
-6.69724e-06
-1.62563e-07
-6.36108e-06
-7.8603e-07
-5.85119e-06
-1.48235e-06
-5.13395e-06
-2.26841e-06
-4.17014e-06
-3.13375e-06
-2.93343e-06
-3.977e-06
-1.46318e-06
-4.4619e-06
-3.70227e-06
-8.00668e-07
1.48505e-06
-1.6841e-06
2.2683e-06
-2.51922e-06
2.71473e-06
-3.29687e-06
2.99433e-06
-4.00572e-06
3.10604e-06
-4.62991e-06
3.05379e-06
-5.15421e-06
2.85203e-06
-5.5667e-06
2.5218e-06
-5.86027e-06
2.08694e-06
-6.03295e-06
1.57048e-06
-6.08708e-06
9.90954e-07
-6.02846e-06
3.58279e-07
-5.86929e-06
-3.21734e-07
-5.60317e-06
-1.05215e-06
-5.21284e-06
-1.87268e-06
-4.66038e-06
-2.82086e-06
-3.88922e-06
-3.90491e-06
-2.83407e-06
-5.03216e-06
-1.47745e-06
-5.81852e-06
-5.17972e-06
-7.56968e-07
2.24202e-06
-1.58932e-06
3.10065e-06
-2.35463e-06
3.48004e-06
-3.03825e-06
3.67795e-06
-3.63248e-06
3.70027e-06
-4.12917e-06
3.55047e-06
-4.52174e-06
3.24461e-06
-4.8072e-06
2.80726e-06
-4.98724e-06
2.26698e-06
-5.0686e-06
1.65184e-06
-5.0626e-06
9.84948e-07
-4.98458e-06
2.8026e-07
-4.85006e-06
-4.56248e-07
-4.66e-06
-1.24222e-06
-4.39868e-06
-2.134e-06
-4.02455e-06
-3.19499e-06
-3.46526e-06
-4.4642e-06
-2.61747e-06
-5.87994e-06
-1.41576e-06
-7.02023e-06
-6.59548e-06
-6.25457e-07
2.86748e-06
-1.34862e-06
3.82382e-06
-2.00762e-06
4.13903e-06
-2.581e-06
4.25134e-06
-3.06132e-06
4.18059e-06
-3.44371e-06
3.93286e-06
-3.72593e-06
3.52682e-06
-3.90936e-06
2.99069e-06
-4.00011e-06
2.35774e-06
-4.00988e-06
1.66161e-06
-3.95656e-06
9.31622e-07
-3.86407e-06
1.87768e-07
-3.7528e-06
-5.6751e-07
-3.63149e-06
-1.36353e-06
-3.48971e-06
-2.27578e-06
-3.28863e-06
-3.39606e-06
-2.94611e-06
-4.80672e-06
-2.32248e-06
-6.50357e-06
-1.30761e-06
-8.0351e-06
-7.90309e-06
-4.55547e-07
3.32303e-06
-1.04047e-06
4.40874e-06
-1.5759e-06
4.67446e-06
-2.03385e-06
4.70929e-06
-2.40641e-06
4.55315e-06
-2.68997e-06
4.21642e-06
-2.88398e-06
3.72084e-06
-2.9913e-06
3.09801e-06
-3.01913e-06
2.38556e-06
-2.98062e-06
1.6231e-06
-2.89637e-06
8.47377e-07
-2.79603e-06
8.74288e-08
-2.70141e-06
-6.62129e-07
-2.62701e-06
-1.43794e-06
-2.5751e-06
-2.32769e-06
-2.52044e-06
-3.45072e-06
-2.3823e-06
-4.94486e-06
-1.98494e-06
-6.90094e-06
-1.17272e-06
-8.84731e-06
-9.07581e-06
-2.74452e-07
3.59748e-06
-7.09186e-07
4.84347e-06
-1.11614e-06
5.08142e-06
-1.46045e-06
5.0536e-06
-1.73404e-06
4.82674e-06
-1.93433e-06
4.4167e-06
-2.06188e-06
3.84839e-06
-2.12011e-06
3.15623e-06
-2.1158e-06
2.38126e-06
-2.06081e-06
1.56811e-06
-1.97303e-06
7.59599e-07
-1.88103e-06
-4.56846e-09
-1.79821e-06
-7.44947e-07
-1.74415e-06
-1.492e-06
-1.73911e-06
-2.33273e-06
-1.78557e-06
-3.40426e-06
-1.82108e-06
-4.90935e-06
-1.63655e-06
-7.08547e-06
-1.02896e-06
-9.4549e-06
-1.01048e-05
-1.02119e-07
3.6996e-06
-3.80321e-07
5.12168e-06
-6.60567e-07
5.36166e-06
-8.9598e-07
5.28901e-06
-1.07866e-06
5.00941e-06
-1.20756e-06
4.54561e-06
-1.28503e-06
3.92585e-06
-1.31568e-06
3.18688e-06
-1.30598e-06
2.37156e-06
-1.26413e-06
1.52626e-06
-1.2025e-06
6.97967e-07
-1.13262e-06
-7.44427e-08
-1.07587e-06
-8.01703e-07
-1.03163e-06
-1.53624e-06
-1.03836e-06
-2.326e-06
-1.13437e-06
-3.30825e-06
-1.29944e-06
-4.74428e-06
-1.30174e-06
-7.08318e-06
-8.89118e-07
-9.86751e-06
-1.09939e-05
4.8716e-08
3.65088e-06
-7.3538e-08
5.24393e-06
-2.28439e-07
5.51656e-06
-3.59723e-07
5.4203e-06
-4.56323e-07
5.10602e-06
-5.19006e-07
4.60829e-06
-5.52614e-07
3.95946e-06
-5.64105e-07
3.19837e-06
-5.61617e-07
2.36907e-06
-5.52855e-07
1.5175e-06
-5.40666e-07
6.85778e-07
-5.17654e-07
-9.74544e-08
-4.89657e-07
-8.297e-07
-4.65037e-07
-1.56086e-06
-4.83275e-07
-2.30777e-06
-5.90758e-07
-3.20077e-06
-8.39164e-07
-4.49587e-06
-9.96697e-07
-6.92565e-06
-7.60631e-07
-1.01036e-05
-1.17545e-05
1.71477e-07
3.4794e-06
2.00237e-07
5.21517e-06
1.66917e-07
5.54988e-06
1.36246e-07
5.45097e-06
1.24461e-07
5.1178e-06
1.29454e-07
4.6033e-06
1.43504e-07
3.94541e-06
1.56818e-07
3.18506e-06
1.5953e-07
2.36636e-06
1.43894e-07
1.53314e-06
1.10175e-07
7.19497e-07
7.63167e-08
-6.35959e-08
5.70105e-08
-8.10393e-07
2.64681e-08
-1.53032e-06
-1.42957e-08
-2.267e-06
-1.59644e-07
-3.05542e-06
-4.43189e-07
-4.21232e-06
-7.25566e-07
-6.64327e-06
-6.44697e-07
-1.01844e-05
-1.23992e-05
2.70413e-07
3.20899e-06
4.29056e-07
5.05653e-06
5.13142e-07
5.4658e-06
5.84315e-07
5.37979e-06
6.6099e-07
5.04113e-06
7.39213e-07
4.52508e-06
8.07918e-07
3.87671e-06
8.54848e-07
3.13813e-06
8.69611e-07
2.3516e-06
8.46421e-07
1.55633e-06
7.86706e-07
7.79212e-07
7.00796e-07
2.23148e-08
6.10913e-07
-7.2051e-07
5.09436e-07
-1.42884e-06
3.79851e-07
-2.13742e-06
1.9835e-07
-2.87392e-06
-8.79569e-08
-3.92602e-06
-4.80541e-07
-6.25068e-06
-5.37975e-07
-1.0127e-05
-1.29372e-05
3.42325e-07
2.86667e-06
6.07436e-07
4.79142e-06
7.99751e-07
5.27348e-06
9.71434e-07
5.20811e-06
1.13891e-06
4.87365e-06
1.29547e-06
4.36852e-06
1.42679e-06
3.74538e-06
1.51851e-06
3.04642e-06
1.56002e-06
2.31008e-06
1.54724e-06
1.56911e-06
1.48249e-06
8.43963e-07
1.36594e-06
1.3886e-07
1.20508e-06
-5.59644e-07
1.01194e-06
-1.23571e-06
7.83482e-07
-1.90896e-06
5.20106e-07
-2.61054e-06
1.96946e-07
-3.60286e-06
-2.51957e-07
-5.80178e-06
-4.36188e-07
-9.94278e-06
-1.33734e-05
3.79987e-07
2.48668e-06
7.23835e-07
4.44757e-06
1.01465e-06
4.98267e-06
1.28769e-06
4.93507e-06
1.55089e-06
4.61045e-06
1.79237e-06
4.12704e-06
1.99431e-06
3.54345e-06
2.14045e-06
2.90027e-06
2.21964e-06
2.23089e-06
2.22701e-06
1.56173e-06
2.16187e-06
9.09099e-07
2.02268e-06
2.78058e-07
1.81055e-06
-3.47521e-07
1.53913e-06
-9.64283e-07
1.21285e-06
-1.58267e-06
8.4053e-07
-2.23823e-06
4.37286e-07
-3.19961e-06
-5.53761e-08
-5.30912e-06
-3.22763e-07
-9.6754e-06
-1.36961e-05
3.68647e-07
2.11803e-06
7.59295e-07
4.05692e-06
1.14104e-06
4.60093e-06
1.52049e-06
4.55562e-06
1.88828e-06
4.24265e-06
2.22375e-06
3.79157e-06
2.50509e-06
3.2621e-06
2.71465e-06
2.69071e-06
2.84084e-06
2.10471e-06
2.87795e-06
1.52463e-06
2.82338e-06
9.63667e-07
2.67345e-06
4.27983e-07
2.42358e-06
-9.76437e-08
2.09051e-06
-6.31212e-07
1.67765e-06
-1.16982e-06
1.19934e-06
-1.75992e-06
6.94e-07
-2.69427e-06
2.13866e-07
-4.82898e-06
-1.18747e-07
-9.34278e-06
-1.38149e-05
2.742e-07
1.84383e-06
6.87628e-07
3.64349e-06
1.16018e-06
4.12837e-06
1.65877e-06
4.05704e-06
2.14511e-06
3.75631e-06
2.58614e-06
3.35054e-06
2.95639e-06
2.89185e-06
3.2378e-06
2.4093e-06
3.4192e-06
1.9233e-06
3.4951e-06
1.44873e-06
3.4633e-06
9.9546e-07
3.3223e-06
5.68988e-07
3.06236e-06
1.62298e-07
2.68383e-06
-2.52686e-07
2.20076e-06
-6.86749e-07
1.62871e-06
-1.18786e-06
1.037e-06
-2.10257e-06
5.72281e-07
-4.36426e-06
1.58544e-07
-8.92905e-06
-1.36563e-05
4.2755e-08
1.80108e-06
4.7406e-07
3.21219e-06
1.05736e-06
3.54507e-06
1.70057e-06
3.41383e-06
2.32391e-06
3.13297e-06
2.88298e-06
2.79147e-06
3.35124e-06
2.42359e-06
3.71213e-06
2.04841e-06
3.95638e-06
1.67905e-06
4.08008e-06
1.32503e-06
4.08266e-06
9.92884e-07
3.96515e-06
6.86492e-07
3.72226e-06
4.05194e-07
3.33991e-06
1.29664e-07
2.82596e-06
-1.72796e-07
2.21258e-06
-5.74492e-07
1.61116e-06
-1.50115e-06
1.15196e-06
-3.90506e-06
5.493e-07
-8.32639e-06
-1.3107e-05
-4.2563e-07
2.22671e-06
7.17185e-08
2.71484e-06
8.50328e-07
2.76647e-06
1.6793e-06
2.58486e-06
2.4608e-06
2.35147e-06
3.15097e-06
2.1013e-06
3.7281e-06
1.84647e-06
4.18018e-06
1.59633e-06
4.50209e-06
1.35713e-06
4.6937e-06
1.13343e-06
4.75794e-06
9.28643e-07
4.69946e-06
7.4497e-07
4.52183e-06
5.82822e-07
4.21415e-06
4.37352e-07
3.77507e-06
2.66277e-07
3.31786e-06
-1.17276e-07
2.9094e-06
-1.09269e-06
2.37798e-06
-3.37365e-06
1.32292e-06
-7.27132e-06
-1.17841e-05
-9.38006e-07
3.16471e-06
-2.22696e-07
1.99953e-06
9.1032e-07
1.63345e-06
1.99949e-06
1.49569e-06
2.98235e-06
1.3686e-06
3.84837e-06
1.23529e-06
4.58707e-06
1.10777e-06
5.19442e-06
9.88973e-07
5.67276e-06
8.78799e-07
6.02853e-06
7.77661e-07
6.27101e-06
6.86159e-07
6.4118e-06
6.04178e-07
6.46574e-06
5.28884e-07
6.45845e-06
4.44645e-07
6.43633e-06
2.88394e-07
6.39175e-06
-7.2695e-08
6.30154e-06
-1.00248e-06
5.46313e-06
-2.53523e-06
3.2428e-06
-5.05099e-06
-8.54134e-06
3.16471e-06
5.16424e-06
6.79769e-06
8.29338e-06
9.66198e-06
1.08973e-05
1.2005e-05
1.2994e-05
1.38728e-05
1.46505e-05
1.53366e-05
1.59408e-05
1.64697e-05
1.69143e-05
1.72027e-05
1.713e-05
1.61276e-05
1.35923e-05
8.54134e-06
)
;

boundaryField
{
    movingWall
    {
        type            calculated;
        value           uniform 0;
    }
    fixedWalls
    {
        type            calculated;
        value           uniform 0;
    }
    frontAndBack
    {
        type            empty;
        value           nonuniform List<scalar> 0();
    }
}


// ************************************************************************* //
