/*--------------------------------*- C++ -*----------------------------------*\
  =========                 |
  \\      /  F ield         | OpenFOAM: The Open Source CFD Toolbox
   \\    /   O peration     | Website:  https://openfoam.org
    \\  /    A nd           | Version:  8
     \\/     M anipulation  |
\*---------------------------------------------------------------------------*/
FoamFile
{
    version     2.0;
    format      ascii;
    class       volVectorField;
    location    "6.5";
    object      U;
}
// * * * * * * * * * * * * * * * * * * * * * * * * * * * * * * * * * * * * * //

dimensions      [0 1 -1 0 0 0 0];

internalField   nonuniform List<vector> 
400
(
(0.0030475 -0.00398501 0)
(0.00616444 -0.00367713 0)
(0.00398493 -0.00103856 0)
(-0.00517444 0.00327817 0)
(-0.0181626 0.0061171 0)
(-0.0337712 0.00785904 0)
(-0.0503331 0.00871819 0)
(-0.0667567 0.00888408 0)
(-0.0821424 0.00851881 0)
(-0.0957476 0.00773857 0)
(-0.10694 0.00661166 0)
(-0.115117 0.00514427 0)
(-0.119635 0.00326291 0)
(-0.11985 0.00080393 0)
(-0.114772 -0.00250821 0)
(-0.103353 -0.00644181 0)
(-0.085172 -0.0106691 0)
(-0.0608416 -0.0143503 0)
(-0.0329822 -0.01509 0)
(-0.00762087 -0.00713944 0)
(-0.000685671 -0.00573566 0)
(-0.0100511 0.00369931 0)
(-0.0233223 0.013224 0)
(-0.0392499 0.0196164 0)
(-0.0566178 0.0234248 0)
(-0.074435 0.0252236 0)
(-0.0917442 0.0253107 0)
(-0.107711 0.0239474 0)
(-0.121598 0.0213642 0)
(-0.132783 0.0177543 0)
(-0.140745 0.0132587 0)
(-0.145 0.00792964 0)
(-0.145018 0.0016757 0)
(-0.140287 -0.00575309 0)
(-0.130925 -0.0141373 0)
(-0.116539 -0.023409 0)
(-0.0966497 -0.0331593 0)
(-0.0714095 -0.0418036 0)
(-0.0425902 -0.0446988 0)
(-0.0137983 -0.0304896 0)
(-0.00616183 0.00652533 0)
(-0.0217284 0.0196529 0)
(-0.0382028 0.0294504 0)
(-0.0551791 0.0362746 0)
(-0.0719488 0.0401981 0)
(-0.0879064 0.0414381 0)
(-0.102451 0.0402607 0)
(-0.115039 0.0369765 0)
(-0.125213 0.0319022 0)
(-0.132627 0.0253268 0)
(-0.137064 0.017476 0)
(-0.138399 0.00846841 0)
(-0.136491 -0.00172049 0)
(-0.131335 -0.0130891 0)
(-0.122879 -0.0255935 0)
(-0.110544 -0.0394718 0)
(-0.0935529 -0.0544065 0)
(-0.0713682 -0.0683995 0)
(-0.044873 -0.0752955 0)
(-0.0160393 -0.0594805 0)
(-0.00775494 0.0218787 0)
(-0.0252058 0.0367605 0)
(-0.042268 0.0461889 0)
(-0.0584936 0.0524141 0)
(-0.0734894 0.0554078 0)
(-0.086947 0.0552609 0)
(-0.0985302 0.0522389 0)
(-0.107953 0.0467213 0)
(-0.11502 0.0391306 0)
(-0.119649 0.0298714 0)
(-0.121885 0.0192701 0)
(-0.12184 0.00752419 0)
(-0.119502 -0.00530122 0)
(-0.115257 -0.019176 0)
(-0.108758 -0.034642 0)
(-0.0993854 -0.052233 0)
(-0.0861073 -0.0718564 0)
(-0.0676972 -0.0914839 0)
(-0.044375 -0.10388 0)
(-0.0161137 -0.0894453 0)
(-0.0071149 0.0374238 0)
(-0.0239114 0.053846 0)
(-0.0398795 0.062174 0)
(-0.0544431 0.0670263 0)
(-0.0672936 0.068426 0)
(-0.0782683 0.0664357 0)
(-0.0871992 0.0613553 0)
(-0.093978 0.05364 0)
(-0.0985854 0.0438125 0)
(-0.101118 0.0323803 0)
(-0.101799 0.019758 0)
(-0.100904 0.00620833 0)
(-0.0985689 -0.00819818 0)
(-0.0954138 -0.0236582 0)
(-0.0910101 -0.0410726 0)
(-0.0848085 -0.0614395 0)
(-0.0755759 -0.0851593 0)
(-0.0613405 -0.110582 0)
(-0.0420734 -0.129625 0)
(-0.0149862 -0.118622 0)
(-0.00540878 0.0513423 0)
(-0.0201522 0.0694864 0)
(-0.0340643 0.0764735 0)
(-0.0464684 0.0796185 0)
(-0.057053 0.0791582 0)
(-0.0657124 0.075185 0)
(-0.072362 0.0680477 0)
(-0.076984 0.0582767 0)
(-0.0796472 0.0464908 0)
(-0.080537 0.0333043 0)
(-0.0799781 0.0192369 0)
(-0.0783846 0.00463297 0)
(-0.0761241 -0.0104573 0)
(-0.0739537 -0.0265018 0)
(-0.0714428 -0.0448242 0)
(-0.0682284 -0.0669604 0)
(-0.0630806 -0.0940406 0)
(-0.0531177 -0.125248 0)
(-0.0386752 -0.151824 0)
(-0.0131852 -0.145928 0)
(-0.00330222 0.0623554 0)
(-0.0152684 0.082715 0)
(-0.026643 0.0885044 0)
(-0.0366712 0.0899683 0)
(-0.0450165 0.0876824 0)
(-0.0515949 0.081809 0)
(-0.0563573 0.0727554 0)
(-0.0593206 0.0611258 0)
(-0.0605783 0.0476363 0)
(-0.0603334 0.0330253 0)
(-0.0589336 0.0179519 0)
(-0.0568739 0.0028609 0)
(-0.0547515 -0.0122434 0)
(-0.053231 -0.0280851 0)
(-0.0520511 -0.0463434 0)
(-0.0511765 -0.0691383 0)
(-0.0498308 -0.0985847 0)
(-0.0438519 -0.135305 0)
(-0.0347815 -0.170033 0)
(-0.0110339 -0.170696 0)
(-0.00116075 0.0698309 0)
(-0.0100054 0.093045 0)
(-0.0186615 0.0980062 0)
(-0.0262824 0.0980285 0)
(-0.0324994 0.0941471 0)
(-0.0372483 0.0866204 0)
(-0.0405046 0.0759172 0)
(-0.0423044 0.0627051 0)
(-0.0427425 0.047782 0)
(-0.0419999 0.0320016 0)
(-0.040378 0.0161642 0)
(-0.0383299 0.000829043 0)
(-0.0365273 -0.0139042 0)
(-0.0352654 -0.0291136 0)
(-0.0347008 -0.0465319 0)
(-0.0350927 -0.0688004 0)
(-0.0369709 -0.0992701 0)
(-0.0343015 -0.140903 0)
(-0.0308706 -0.184106 0)
(-0.00872863 -0.192622 0)
(0.000747662 0.0736303 0)
(-0.00482424 0.100325 0)
(-0.0107145 0.104937 0)
(-0.0159968 0.103858 0)
(-0.0202128 0.0987199 0)
(-0.0233334 0.0899004 0)
(-0.0253682 0.0779301 0)
(-0.0263848 0.0635262 0)
(-0.0264883 0.0475406 0)
(-0.025835 0.0309051 0)
(-0.0246266 0.0145289 0)
(-0.0229759 -0.000931815 0)
(-0.0219505 -0.0154197 0)
(-0.0208586 -0.0301461 0)
(-0.0205372 -0.0463898 0)
(-0.0210245 -0.0670978 0)
(-0.0253844 -0.0969289 0)
(-0.0250658 -0.142494 0)
(-0.0272894 -0.194164 0)
(-0.00639195 -0.211697 0)
(0.00218932 0.0740906 0)
(-5.43456e-05 0.104429 0)
(-0.00317003 0.109385 0)
(-0.00621046 0.107573 0)
(-0.00851992 0.101549 0)
(-0.0101125 0.0918483 0)
(-0.0110401 0.0790654 0)
(-0.0114226 0.0639495 0)
(-0.0114011 0.0473651 0)
(-0.0111356 0.0302413 0)
(-0.0107968 0.0135158 0)
(-0.010374 -0.00202336 0)
(-0.00995558 -0.0165596 0)
(-0.00925965 -0.0311175 0)
(-0.00947705 -0.046365 0)
(-0.00939692 -0.0649973 0)
(-0.0155432 -0.0925945 0)
(-0.0165066 -0.140726 0)
(-0.0242241 -0.200518 0)
(-0.00408041 -0.228099 0)
(0.00320186 0.071924 0)
(0.00401636 0.105325 0)
(0.00364503 0.11131 0)
(0.00281064 0.109272 0)
(0.00236907 0.102733 0)
(0.00231782 0.0925346 0)
(0.00255414 0.0793663 0)
(0.00289355 0.0640259 0)
(0.00314563 0.0473994 0)
(0.00313969 0.0303922 0)
(0.00278284 0.013773 0)
(0.00186511 -0.00202501 0)
(0.00138546 -0.0168425 0)
(0.00116246 -0.031284 0)
(-0.000257962 -0.046008 0)
(-4.12309e-05 -0.0626339 0)
(-0.00750123 -0.0872108 0)
(-0.00871235 -0.136253 0)
(-0.0216837 -0.203551 0)
(-0.00177821 -0.242087 0)
(0.00389543 0.0674512 0)
(0.00735593 0.103394 0)
(0.00948444 0.110778 0)
(0.0108239 0.108853 0)
(0.0122666 0.102073 0)
(0.0138323 0.0917037 0)
(0.0153568 0.0785643 0)
(0.0165925 0.0634879 0)
(0.0173078 0.0473477 0)
(0.0173319 0.030984 0)
(0.0166627 0.0150023 0)
(0.0150848 -0.000589988 0)
(0.0133609 -0.0155892 0)
(0.0115393 -0.0299631 0)
(0.00871888 -0.0444117 0)
(0.00761819 -0.0594563 0)
(-0.0010315 -0.0811432 0)
(-0.00152853 -0.129488 0)
(-0.019518 -0.203632 0)
(0.000595362 -0.253919 0)
(0.0042762 0.0611995 0)
(0.00989152 0.0990481 0)
(0.0141916 0.107972 0)
(0.0176301 0.106421 0)
(0.0209843 0.099645 0)
(0.0242521 0.089383 0)
(0.0271963 0.0766094 0)
(0.02951 0.0621709 0)
(0.0309313 0.046882 0)
(0.0312934 0.0314655 0)
(0.0305848 0.0163827 0)
(0.0289977 0.00160211 0)
(0.0260229 -0.0128834 0)
(0.0225427 -0.026871 0)
(0.0180449 -0.0407987 0)
(0.0146314 -0.0552312 0)
(0.00428733 -0.0754405 0)
(0.00517358 -0.120517 0)
(-0.0174956 -0.201211 0)
(0.00319646 -0.263758 0)
(0.0042596 0.0537947 0)
(0.0114301 0.0927956 0)
(0.0175212 0.103081 0)
(0.022981 0.101985 0)
(0.0283157 0.0953812 0)
(0.0334054 0.0854592 0)
(0.0379162 0.0733411 0)
(0.0414844 0.0598623 0)
(0.0438223 0.0457465 0)
(0.0447568 0.0315848 0)
(0.0442423 0.0177352 0)
(0.0424591 0.00424663 0)
(0.03875 -0.00908238 0)
(0.0339522 -0.0221221 0)
(0.027857 -0.0351492 0)
(0.0219739 -0.0488084 0)
(0.00925064 -0.0683512 0)
(0.0112876 -0.110712 0)
(-0.0152934 -0.196886 0)
(0.0063939 -0.27151 0)
(0.00363097 0.0460347 0)
(0.0116112 0.0852156 0)
(0.0191101 0.0962906 0)
(0.0265769 0.0954893 0)
(0.0340461 0.0891376 0)
(0.041144 0.0797629 0)
(0.047403 0.0685777 0)
(0.0524058 0.0563685 0)
(0.0558487 0.0437484 0)
(0.0575527 0.0311873 0)
(0.057444 0.018979 0)
(0.0556466 0.00722556 0)
(0.0514905 -0.0044595 0)
(0.0457025 -0.0160093 0)
(0.0382371 -0.0276503 0)
(0.029987 -0.040181 0)
(0.0152617 -0.0591749 0)
(0.01674 -0.101321 0)
(-0.0122086 -0.19072 0)
(0.0109684 -0.276714 0)
(0.00183517 0.0391372 0)
(0.00976052 0.0769419 0)
(0.0184888 0.087726 0)
(0.0281244 0.086788 0)
(0.0380096 0.0806975 0)
(0.0473793 0.0720897 0)
(0.055601 0.0621378 0)
(0.0622192 0.0515219 0)
(0.0669353 0.0407276 0)
(0.0695812 0.030111 0)
(0.0700829 0.019905 0)
(0.0684822 0.0102299 0)
(0.0646093 0.000847339 0)
(0.0581006 -0.00873851 0)
(0.0495418 -0.0185763 0)
(0.039158 -0.0296446 0)
(0.023209 -0.0481902 0)
(0.0230046 -0.0924904 0)
(-0.00670833 -0.184514 0)
(0.0178243 -0.278663 0)
(-0.00223743 0.0346753 0)
(0.00453837 0.0688937 0)
(0.0152238 0.0774028 0)
(0.0274939 0.0755839 0)
(0.0402243 0.0697467 0)
(0.0521794 0.0621739 0)
(0.0625813 0.0537925 0)
(0.0709807 0.0451049 0)
(0.0771199 0.0364524 0)
(0.0808692 0.0280796 0)
(0.0821857 0.0201508 0)
(0.0810884 0.0127608 0)
(0.0776721 0.00584892 0)
(0.0714044 -0.0011894 0)
(0.0623196 -0.00892779 0)
(0.05053 -0.0180608 0)
(0.0349021 -0.0362759 0)
(0.0335498 -0.0843555 0)
(0.00365646 -0.177046 0)
(0.0282785 -0.274824 0)
(-0.00863003 0.039743 0)
(-0.00600715 0.0599833 0)
(0.00934018 0.0648311 0)
(0.0252261 0.0616092 0)
(0.0413961 0.0562719 0)
(0.056276 0.0501641 0)
(0.0690917 0.0437917 0)
(0.0794907 0.0374298 0)
(0.08731 0.0312646 0)
(0.0925014 0.0254351 0)
(0.095096 0.0200422 0)
(0.095173 0.0151518 0)
(0.0928308 0.0107829 0)
(0.0881229 0.00683222 0)
(0.0805367 0.00285066 0)
(0.0691962 -0.00315646 0)
(0.0584561 -0.0242179 0)
(0.0574876 -0.0759519 0)
(0.0261548 -0.16168 0)
(0.0462873 -0.254639 0)
(-0.0150018 0.0560151 0)
(-0.0169219 0.0451841 0)
(0.00744053 0.0415426 0)
(0.0292073 0.0392665 0)
(0.049837 0.0361715 0)
(0.0684985 0.0326007 0)
(0.0846856 0.0289757 0)
(0.0982376 0.025477 0)
(0.10915 0.0221774 0)
(0.117516 0.0191271 0)
(0.123499 0.0163653 0)
(0.127311 0.0139088 0)
(0.129217 0.0117167 0)
(0.129577 0.0095076 0)
(0.128626 0.00588227 0)
(0.124188 -0.0040002 0)
(0.125141 -0.0261699 0)
(0.122372 -0.0651683 0)
(0.0834745 -0.12614 0)
(0.0834871 -0.200097 0)
(0.0658156 0.0564519 0)
(0.0807257 0.0405753 0)
(0.117814 0.0305199 0)
(0.151148 0.0253078 0)
(0.180097 0.0219962 0)
(0.206047 0.01947 0)
(0.229458 0.0174162 0)
(0.250441 0.0156991 0)
(0.269123 0.014232 0)
(0.285674 0.0129609 0)
(0.300287 0.0118515 0)
(0.313153 0.010876 0)
(0.324417 0.00999355 0)
(0.333995 0.00906481 0)
(0.341304 0.00748152 0)
(0.34506 0.00348877 0)
(0.336129 -0.0044262 0)
(0.30497 -0.0193149 0)
(0.231235 -0.04916 0)
(0.16774 -0.105229 0)
)
;

boundaryField
{
    movingWall
    {
        type            fixedValue;
        value           uniform (1 0 0);
    }
    fixedWalls
    {
        type            noSlip;
    }
    frontAndBack
    {
        type            empty;
    }
}


// ************************************************************************* //
