/*--------------------------------*- C++ -*----------------------------------*\
  =========                 |
  \\      /  F ield         | OpenFOAM: The Open Source CFD Toolbox
   \\    /   O peration     | Website:  https://openfoam.org
    \\  /    A nd           | Version:  8
     \\/     M anipulation  |
\*---------------------------------------------------------------------------*/
FoamFile
{
    version     2.0;
    format      ascii;
    class       volScalarField;
    location    "7.5";
    object      p;
}
// * * * * * * * * * * * * * * * * * * * * * * * * * * * * * * * * * * * * * //

dimensions      [0 2 -2 0 0 0 0];

internalField   nonuniform List<scalar> 
400
(
2.43826e-08
-0.00018054
-0.000386444
-0.00063146
-0.001005
-0.00151535
-0.00215055
-0.00284637
-0.00350046
-0.00398986
-0.00418438
-0.00395337
-0.00317844
-0.00178926
0.000212453
0.00271069
0.00536269
0.00754324
0.0085937
0.00842509
0.000174339
1.79064e-05
-0.000255935
-0.000578247
-0.00101241
-0.00159741
-0.00231691
-0.00310065
-0.00384099
-0.00441281
-0.00469022
-0.00455301
-0.00389421
-0.00267873
-0.000835621
0.00151605
0.00407205
0.00629116
0.00753104
0.00762345
0.000497423
0.000220303
-0.00016061
-0.000651944
-0.00129255
-0.00208966
-0.0030053
-0.00395637
-0.0048305
-0.00550651
-0.00587342
-0.00583995
-0.00532406
-0.00422092
-0.00254889
-0.000382683
0.00206525
0.00435744
0.00584274
0.00619179
0.000588003
0.000225998
-0.000321467
-0.00103741
-0.00192677
-0.00296135
-0.00407725
-0.00518039
-0.00616091
-0.00691193
-0.00734578
-0.00739332
-0.00698318
-0.00605792
-0.0046179
-0.00269512
-0.000411134
0.00190672
0.00359404
0.00418631
0.000266676
-0.000153393
-0.000838637
-0.00174487
-0.00283871
-0.00405985
-0.00532384
-0.00652944
-0.00757257
-0.00836275
-0.0088344
-0.00893995
-0.00863064
-0.00788432
-0.00670228
-0.00507339
-0.0030337
-0.000789169
0.000992716
0.00179394
-0.000458911
-0.000900037
-0.00166268
-0.00268416
-0.00390298
-0.00523377
-0.00657615
-0.00782409
-0.0088797
-0.00966682
-0.010138
-0.0102671
-0.0100369
-0.00945763
-0.00853358
-0.00722535
-0.00550312
-0.00343855
-0.00168933
-0.000733229
-0.00143337
-0.00186527
-0.00265094
-0.00371688
-0.0049844
-0.00635164
-0.00770745
-0.00894304
-0.009966
-0.0107118
-0.0111486
-0.0112718
-0.0110947
-0.0106524
-0.00995605
-0.0089573
-0.00759209
-0.00579227
-0.00419525
-0.00314238
-0.0024653
-0.00287169
-0.00364475
-0.00470409
-0.00596331
-0.00731239
-0.00863498
-0.00982168
-0.0107846
-0.0114686
-0.0118549
-0.0119565
-0.0118095
-0.0114645
-0.0109409
-0.0101985
-0.00918045
-0.00768666
-0.00632675
-0.00523215
-0.00340729
-0.00377315
-0.00451466
-0.00553564
-0.0067509
-0.00804939
-0.00931484
-0.0104392
-0.0113381
-0.0119625
-0.0123022
-0.012376
-0.0122479
-0.0119611
-0.0115456
-0.0109787
-0.0102534
-0.00905563
-0.00796863
-0.00687109
-0.00417015
-0.00447648
-0.00517453
-0.00613837
-0.00729036
-0.00852367
-0.00972673
-0.0107947
-0.0116447
-0.0122293
-0.012542
-0.0126089
-0.0124864
-0.0122159
-0.0118497
-0.0113672
-0.0108681
-0.00990992
-0.00908334
-0.00799109
-0.00470067
-0.00495312
-0.00558587
-0.00647785
-0.0075545
-0.00871831
-0.00986449
-0.010891
-0.0117147
-0.0122849
-0.0125905
-0.01266
-0.0125367
-0.0122561
-0.0119038
-0.0114168
-0.0110959
-0.010292
-0.00967828
-0.00856517
-0.00499498
-0.00520162
-0.00575678
-0.00656317
-0.00755494
-0.00864697
-0.00974121
-0.0107373
-0.01155
-0.0121229
-0.012436
-0.012511
-0.0123799
-0.0120874
-0.0117013
-0.0112035
-0.0109485
-0.0102217
-0.00978884
-0.00858493
-0.00509297
-0.005251
-0.00571191
-0.00641635
-0.00731437
-0.00833296
-0.00937905
-0.010352
-0.0111624
-0.0117469
-0.012076
-0.0121514
-0.0120123
-0.0117042
-0.011278
-0.0107501
-0.0104586
-0.00970022
-0.00950855
-0.00802467
-0.00505071
-0.00514879
-0.00548461
-0.00606021
-0.00685187
-0.00779651
-0.00880139
-0.00976153
-0.0105803
-0.0111856
-0.0115364
-0.0116213
-0.0114786
-0.0111508
-0.0106791
-0.0101042
-0.00972385
-0.00873857
-0.00894851
-0.00676976
-0.00492743
-0.00494335
-0.0051075
-0.00551843
-0.00618996
-0.00706462
-0.00804185
-0.00900609
-0.00985009
-0.0104908
-0.0108764
-0.0109847
-0.0108471
-0.0104975
-0.00997536
-0.00933655
-0.0088127
-0.00758546
-0.00793297
-0.00461826
-0.00478347
-0.00466187
-0.00459927
-0.00481213
-0.005358
-0.00617681
-0.00714885
-0.00814084
-0.00903162
-0.00972671
-0.0101645
-0.0103149
-0.010188
-0.00982381
-0.00926054
-0.00855043
-0.00782078
-0.00632781
-0.00621065
-0.00134517
-0.00468785
-0.00427852
-0.00395582
-0.00395705
-0.0043934
-0.00518717
-0.00618669
-0.00723563
-0.00819778
-0.00896788
-0.00947609
-0.00968643
-0.00959356
-0.00923414
-0.0086469
-0.00785679
-0.00683004
-0.00479331
-0.00313133
0.00475769
-0.00464871
-0.0038127
-0.0031774
-0.00297815
-0.00334913
-0.00416333
-0.00522699
-0.00636071
-0.00741517
-0.00827675
-0.00886978
-0.00915378
-0.00911724
-0.00876859
-0.00813003
-0.00722351
-0.00577036
-0.00233604
0.00325856
0.0182021
-0.00513433
-0.00333717
-0.00235619
-0.00202813
-0.00240548
-0.00328964
-0.00444978
-0.00568774
-0.00684403
-0.00780091
-0.00848131
-0.0088444
-0.00888005
-0.00860645
-0.00807633
-0.00724439
-0.00454053
0.00241178
0.0155574
0.0420431
-0.00823479
-0.00207974
-0.000452729
-0.000499216
-0.00114895
-0.00221045
-0.00353429
-0.0049257
-0.00621679
-0.0072893
-0.00806802
-0.0085117
-0.00859992
-0.00828586
-0.00729505
-0.0046856
0.000842331
0.0122794
0.0324278
0.0658895
)
;

boundaryField
{
    movingWall
    {
        type            zeroGradient;
    }
    fixedWalls
    {
        type            zeroGradient;
    }
    frontAndBack
    {
        type            empty;
    }
}


// ************************************************************************* //
