/*--------------------------------*- C++ -*----------------------------------*\
  =========                 |
  \\      /  F ield         | OpenFOAM: The Open Source CFD Toolbox
   \\    /   O peration     | Website:  https://openfoam.org
    \\  /    A nd           | Version:  8
     \\/     M anipulation  |
\*---------------------------------------------------------------------------*/
FoamFile
{
    version     2.0;
    format      ascii;
    class       surfaceScalarField;
    location    "7.5";
    object      phi;
}
// * * * * * * * * * * * * * * * * * * * * * * * * * * * * * * * * * * * * * //

dimensions      [0 3 -1 0 0 0 0];

internalField   nonuniform List<scalar> 
760
(
2.49738e-07
-2.49741e-07
2.50681e-07
-9.42183e-10
-3.73281e-08
2.88009e-07
-5.90132e-07
5.52804e-07
-1.30334e-06
7.13208e-07
-2.1025e-06
7.99164e-07
-2.92578e-06
8.23272e-07
-3.72175e-06
7.95972e-07
-4.44797e-06
7.26221e-07
-5.06909e-06
6.21116e-07
-5.5547e-06
4.85609e-07
-5.87562e-06
3.20925e-07
-5.999e-06
1.23381e-07
-5.88571e-06
-1.13294e-07
-5.49121e-06
-3.94503e-07
-4.77607e-06
-7.15135e-07
-3.72117e-06
-1.0549e-06
-2.36458e-06
-1.35659e-06
-9.15519e-07
-1.44906e-06
-9.15519e-07
-2.62852e-07
1.31111e-08
-8.25406e-07
5.61612e-07
-1.58173e-06
1.04434e-06
-2.41099e-06
1.38206e-06
-3.28545e-06
1.58767e-06
-4.16038e-06
1.67409e-06
-4.99107e-06
1.65396e-06
-5.73748e-06
1.54239e-06
-6.36492e-06
1.35366e-06
-6.84392e-06
1.10011e-06
-7.14949e-06
7.91183e-07
-7.26014e-06
4.31572e-07
-7.13834e-06
1.58092e-09
-6.7988e-06
-4.52838e-07
-6.21757e-06
-9.75727e-07
-5.37808e-06
-1.55462e-06
-4.25952e-06
-2.17347e-06
-2.87227e-06
-2.74384e-06
-1.32629e-06
-2.99504e-06
-2.24181e-06
-6.75437e-07
6.88548e-07
-1.50488e-06
1.39106e-06
-2.34706e-06
1.88651e-06
-3.18852e-06
2.22352e-06
-4.00413e-06
2.40327e-06
-4.76456e-06
2.43453e-06
-5.44187e-06
2.33127e-06
-6.01087e-06
2.11139e-06
-6.45125e-06
1.79403e-06
-6.7483e-06
1.39716e-06
-6.89214e-06
9.3503e-07
-6.87467e-06
4.14099e-07
-6.70701e-06
-1.6608e-07
-6.36967e-06
-7.90174e-07
-5.85845e-06
-1.48695e-06
-5.13979e-06
-2.27328e-06
-4.17453e-06
-3.13873e-06
-2.93638e-06
-3.98198e-06
-1.46467e-06
-4.46675e-06
-3.70648e-06
-8.03759e-07
1.49231e-06
-1.68972e-06
2.27702e-06
-2.52683e-06
2.72362e-06
-3.30602e-06
3.00271e-06
-4.01603e-06
3.11328e-06
-4.641e-06
3.05951e-06
-5.16576e-06
2.85603e-06
-5.57841e-06
2.52404e-06
-5.87188e-06
2.0875e-06
-6.04423e-06
1.56951e-06
-6.09782e-06
9.88619e-07
-6.03848e-06
3.54751e-07
-5.87838e-06
-3.26176e-07
-5.61111e-06
-1.05744e-06
-5.21947e-06
-1.87859e-06
-4.66566e-06
-2.8271e-06
-3.89318e-06
-3.91121e-06
-2.83674e-06
-5.03842e-06
-1.47881e-06
-5.82468e-06
-5.18529e-06
-7.59568e-07
2.25187e-06
-1.5942e-06
3.11165e-06
-2.36131e-06
3.49073e-06
-3.04631e-06
3.68771e-06
-3.64157e-06
3.70854e-06
-4.13897e-06
3.55692e-06
-4.53202e-06
3.24908e-06
-4.81774e-06
2.80976e-06
-4.99787e-06
2.26764e-06
-5.07915e-06
1.65079e-06
-5.07285e-06
9.82323e-07
-4.9943e-06
2.76197e-07
-4.85892e-06
-4.61556e-07
-4.66768e-06
-1.24868e-06
-4.40495e-06
-2.14132e-06
-4.02938e-06
-3.20266e-06
-3.46878e-06
-4.47182e-06
-2.61984e-06
-5.88736e-06
-1.41697e-06
-7.02755e-06
-6.60226e-06
-6.27546e-07
2.87942e-06
-1.35266e-06
3.83676e-06
-2.01323e-06
4.15131e-06
-2.58785e-06
4.26233e-06
-3.06913e-06
4.18982e-06
-3.45227e-06
3.94005e-06
-3.73507e-06
3.53188e-06
-3.91898e-06
2.99367e-06
-4.01012e-06
2.35878e-06
-4.02017e-06
1.66084e-06
-3.96691e-06
9.29059e-07
-3.87413e-06
1.83421e-07
-3.76207e-06
-5.73619e-07
-3.63944e-06
-1.37131e-06
-3.49598e-06
-2.28477e-06
-3.29322e-06
-3.40543e-06
-2.94927e-06
-4.81576e-06
-2.32454e-06
-6.5121e-06
-1.30867e-06
-8.04343e-06
-7.91092e-06
-4.57117e-07
3.33654e-06
-1.04363e-06
4.42328e-06
-1.58039e-06
4.68806e-06
-2.03943e-06
4.72137e-06
-2.41289e-06
4.56328e-06
-2.69723e-06
4.22439e-06
-2.89196e-06
3.72661e-06
-2.99998e-06
3.10169e-06
-3.02853e-06
2.38732e-06
-2.99073e-06
1.62304e-06
-2.90705e-06
8.45375e-07
-2.80671e-06
8.30788e-08
-2.71135e-06
-6.68974e-07
-2.63551e-06
-1.44716e-06
-2.58163e-06
-2.33865e-06
-2.52495e-06
-3.46211e-06
-2.38517e-06
-4.95554e-06
-1.98671e-06
-6.91056e-06
-1.17362e-06
-8.85652e-06
-9.08454e-06
-2.7548e-07
3.61202e-06
-7.11438e-07
4.85924e-06
-1.11944e-06
5.09607e-06
-1.46466e-06
5.06659e-06
-1.73906e-06
4.83768e-06
-1.94011e-06
4.42543e-06
-2.06842e-06
3.85493e-06
-2.12746e-06
3.16073e-06
-2.12402e-06
2.38388e-06
-2.06986e-06
1.56889e-06
-1.98292e-06
7.58426e-07
-1.89087e-06
-8.96395e-09
-1.80806e-06
-7.51784e-07
-1.75282e-06
-1.5024e-06
-1.7458e-06
-2.34566e-06
-1.79003e-06
-3.41788e-06
-1.82364e-06
-4.92193e-06
-1.638e-06
-7.0962e-06
-1.02969e-06
-9.46483e-06
-1.01142e-05
-1.02573e-07
3.71459e-06
-3.8161e-07
5.13827e-06
-6.62605e-07
5.37706e-06
-8.98698e-07
5.30268e-06
-1.08202e-06
5.02101e-06
-1.21159e-06
4.555e-06
-1.28975e-06
3.93309e-06
-1.32119e-06
3.19217e-06
-1.31238e-06
2.37508e-06
-1.27152e-06
1.52802e-06
-1.21069e-06
6.97597e-07
-1.14157e-06
-7.80811e-08
-1.08432e-06
-8.0904e-07
-1.03927e-06
-1.54745e-06
-1.04451e-06
-2.34042e-06
-1.13853e-06
-3.32387e-06
-1.3016e-06
-4.75886e-06
-1.30281e-06
-7.09499e-06
-8.89637e-07
-9.878e-06
-1.10039e-05
4.88004e-08
3.66579e-06
-7.38174e-08
5.26089e-06
-2.29123e-07
5.53237e-06
-3.6081e-07
5.43437e-06
-4.57836e-07
5.11803e-06
-5.20987e-07
4.61815e-06
-5.55122e-07
3.96723e-06
-5.67207e-07
3.20425e-06
-5.65358e-07
2.37323e-06
-5.57203e-07
1.51987e-06
-5.45399e-07
6.85794e-07
-5.22725e-07
-1.00754e-07
-4.94778e-07
-8.36987e-07
-4.70104e-07
-1.57212e-06
-4.8771e-07
-2.32282e-06
-5.94112e-07
-3.21747e-06
-8.40699e-07
-4.51227e-06
-9.97278e-07
-6.93841e-06
-7.60896e-07
-1.01144e-05
-1.17648e-05
1.72101e-07
3.49369e-06
2.01013e-07
5.23198e-06
1.67666e-07
5.56571e-06
1.36903e-07
5.46513e-06
1.24963e-07
5.12997e-06
1.29732e-07
4.61338e-06
1.43497e-07
3.95346e-06
1.56495e-07
3.19125e-06
1.58922e-07
2.3708e-06
1.43133e-07
1.53566e-06
1.09494e-07
7.19432e-07
7.55574e-08
-6.68174e-08
5.58861e-08
-8.17315e-07
2.4799e-08
-1.54103e-06
-1.6693e-08
-2.28132e-06
-1.61509e-07
-3.07265e-06
-4.43879e-07
-4.2299e-06
-7.2554e-07
-6.65675e-06
-6.44646e-07
-1.01953e-05
-1.24094e-05
2.71551e-07
3.22214e-06
4.30879e-07
5.07265e-06
5.15354e-07
5.48124e-06
5.86779e-07
5.39371e-06
6.63599e-07
5.05315e-06
7.41876e-07
4.5351e-06
8.10567e-07
3.88477e-06
8.57466e-07
3.14435e-06
8.72244e-07
2.35602e-06
8.49135e-07
1.55877e-06
7.89348e-07
7.79219e-07
7.03264e-07
1.92671e-08
6.13191e-07
-7.27242e-07
5.11095e-07
-1.43894e-06
3.80612e-07
-2.15084e-06
1.9829e-07
-2.89033e-06
-8.75739e-08
-3.94404e-06
-4.79771e-07
-6.26455e-06
-5.37565e-07
-1.01375e-05
-1.2947e-05
3.43951e-07
2.87819e-06
6.10269e-07
4.80633e-06
8.03409e-07
5.2881e-06
9.75705e-07
5.22141e-06
1.14364e-06
4.88521e-06
1.30054e-06
4.37821e-06
1.43212e-06
3.7532e-06
1.52405e-06
3.05242e-06
1.56579e-06
2.31427e-06
1.55328e-06
1.57129e-06
1.48873e-06
8.43762e-07
1.37211e-06
1.35895e-07
1.21061e-06
-5.65746e-07
1.01653e-06
-1.24486e-06
7.86831e-07
-1.92114e-06
5.22173e-07
-2.62567e-06
1.98378e-07
-3.62024e-06
-2.50432e-07
-5.81574e-06
-4.35468e-07
-9.95245e-06
-1.33824e-05
3.8206e-07
2.49613e-06
7.27609e-07
4.46078e-06
1.01968e-06
4.99603e-06
1.2937e-06
4.94739e-06
1.55769e-06
4.62122e-06
1.7998e-06
4.13609e-06
2.00225e-06
3.55075e-06
2.14881e-06
2.90586e-06
2.22837e-06
2.23472e-06
2.23603e-06
1.56363e-06
2.17098e-06
9.08805e-07
2.03157e-06
2.75314e-07
1.81877e-06
-3.52952e-07
1.54626e-06
-9.72346e-07
1.21854e-06
-1.59342e-06
8.44604e-07
-2.25173e-06
4.39804e-07
-3.21544e-06
-5.377e-08
-5.32217e-06
-3.21768e-07
-9.68445e-06
-1.37042e-05
3.71104e-07
2.12502e-06
7.63864e-07
4.06802e-06
1.14728e-06
4.61261e-06
1.5281e-06
4.56658e-06
1.89702e-06
4.2523e-06
2.23341e-06
3.7997e-06
2.51551e-06
3.26865e-06
2.72568e-06
2.69569e-06
2.85233e-06
2.10807e-06
2.88971e-06
1.52624e-06
2.83514e-06
9.63377e-07
2.68484e-06
4.25614e-07
2.43423e-06
-1.02338e-07
2.09991e-06
-6.38027e-07
1.68543e-06
-1.17894e-06
1.20523e-06
-1.77154e-06
6.97793e-07
-2.708e-06
2.16857e-07
-4.84123e-06
-1.16852e-07
-9.35074e-06
-1.38211e-05
2.76967e-07
1.84806e-06
6.92765e-07
3.65223e-06
1.16739e-06
4.13799e-06
1.66773e-06
4.06624e-06
2.15556e-06
3.76447e-06
2.59782e-06
3.35743e-06
2.96907e-06
2.8974e-06
3.25127e-06
2.41349e-06
3.43324e-06
1.9261e-06
3.50943e-06
1.45006e-06
3.47755e-06
9.95253e-07
3.33596e-06
5.67209e-07
3.07492e-06
1.58697e-07
2.69513e-06
-2.58237e-07
2.21033e-06
-6.94138e-07
1.63617e-06
-1.19738e-06
1.04212e-06
-2.11395e-06
5.7533e-07
-4.37444e-06
1.59833e-07
-8.93524e-06
-1.36612e-05
4.53417e-08
1.80271e-06
4.7945e-07
3.21812e-06
1.06514e-06
3.5523e-06
1.71052e-06
3.42085e-06
2.33575e-06
3.13924e-06
2.89638e-06
2.7968e-06
3.3659e-06
2.42788e-06
3.72778e-06
2.05162e-06
3.97271e-06
1.68116e-06
4.09676e-06
1.32601e-06
4.09931e-06
9.92705e-07
3.98136e-06
6.85159e-07
3.73734e-06
4.02716e-07
3.35324e-06
1.25869e-07
2.83738e-06
-1.78281e-07
2.2217e-06
-5.81698e-07
1.61754e-06
-1.50979e-06
1.15539e-06
-3.91229e-06
5.50824e-07
-8.33068e-06
-1.31104e-05
-4.23211e-07
2.22593e-06
7.67088e-08
2.7182e-06
8.58074e-07
2.77094e-06
1.68973e-06
2.58919e-06
2.47351e-06
2.35547e-06
3.16556e-06
2.10475e-06
3.74419e-06
1.84925e-06
4.19741e-06
1.5984e-06
4.5201e-06
1.35847e-06
4.71207e-06
1.13403e-06
4.77626e-06
9.2852e-07
4.71727e-06
7.44145e-07
4.53866e-06
5.81325e-07
4.22938e-06
4.35155e-07
3.7884e-06
2.62697e-07
3.32812e-06
-1.2142e-07
2.91627e-06
-1.09794e-06
2.38157e-06
-3.3776e-06
1.32447e-06
-7.27358e-06
-1.17859e-05
-9.3753e-07
3.16346e-06
-2.19188e-07
1.99986e-06
9.17036e-07
1.63471e-06
2.00893e-06
1.4973e-06
2.99419e-06
1.37021e-06
3.86219e-06
1.23675e-06
4.60245e-06
1.10899e-06
5.21093e-06
9.89918e-07
5.68995e-06
8.7945e-07
6.04596e-06
7.7802e-07
6.28824e-06
6.86238e-07
6.42839e-06
6.03994e-07
6.48127e-06
5.28445e-07
6.47253e-06
4.43896e-07
6.44805e-06
2.87183e-07
6.40158e-06
-7.49498e-08
6.30757e-06
-1.00393e-06
5.46621e-06
-2.53624e-06
3.24413e-06
-5.05151e-06
-8.54179e-06
3.16346e-06
5.16331e-06
6.79803e-06
8.29532e-06
9.66554e-06
1.09023e-05
1.20113e-05
1.30012e-05
1.38806e-05
1.46587e-05
1.53449e-05
1.59489e-05
1.64773e-05
1.69212e-05
1.72084e-05
1.71335e-05
1.61295e-05
1.35933e-05
8.54179e-06
)
;

boundaryField
{
    movingWall
    {
        type            calculated;
        value           uniform 0;
    }
    fixedWalls
    {
        type            calculated;
        value           uniform 0;
    }
    frontAndBack
    {
        type            empty;
        value           nonuniform List<scalar> 0();
    }
}


// ************************************************************************* //
