/*--------------------------------*- C++ -*----------------------------------*\
  =========                 |
  \\      /  F ield         | OpenFOAM: The Open Source CFD Toolbox
   \\    /   O peration     | Website:  https://openfoam.org
    \\  /    A nd           | Version:  8
     \\/     M anipulation  |
\*---------------------------------------------------------------------------*/
FoamFile
{
    version     2.0;
    format      ascii;
    class       volVectorField;
    location    "7.5";
    object      U;
}
// * * * * * * * * * * * * * * * * * * * * * * * * * * * * * * * * * * * * * //

dimensions      [0 1 -1 0 0 0 0];

internalField   nonuniform List<vector> 
400
(
(0.00306337 -0.00401346 0)
(0.00619462 -0.00369783 0)
(0.00398324 -0.001024 0)
(-0.00524274 0.00331784 0)
(-0.0182934 0.00615743 0)
(-0.0339539 0.00789312 0)
(-0.0505561 0.00874464 0)
(-0.0670087 0.0089031 0)
(-0.0824123 0.00853096 0)
(-0.0960252 0.00774449 0)
(-0.107216 0.00661191 0)
(-0.115382 0.00513916 0)
(-0.119882 0.00325233 0)
(-0.120072 0.000787318 0)
(-0.114961 -0.0025294 0)
(-0.103506 -0.00646545 0)
(-0.0852873 -0.0106939 0)
(-0.0609191 -0.0143753 0)
(-0.033024 -0.0151124 0)
(-0.00763366 -0.00715073 0)
(-0.000699391 -0.00575156 0)
(-0.0101292 0.00375457 0)
(-0.0234416 0.013304 0)
(-0.039415 0.0197003 0)
(-0.0568252 0.0235009 0)
(-0.0746781 0.0252862 0)
(-0.0920145 0.0253575 0)
(-0.107999 0.0239779 0)
(-0.121893 0.0213789 0)
(-0.133076 0.0177543 0)
(-0.141027 0.0132455 0)
(-0.145263 0.00790445 0)
(-0.145255 0.00163959 0)
(-0.140493 -0.00579867 0)
(-0.131102 -0.0141881 0)
(-0.116684 -0.0234628 0)
(-0.0967616 -0.0332146 0)
(-0.0714882 -0.0418591 0)
(-0.0426367 -0.0447511 0)
(-0.0138178 -0.0305291 0)
(-0.00620713 0.00658311 0)
(-0.0218244 0.019752 0)
(-0.0383442 0.0295679 0)
(-0.0553603 0.0363944 0)
(-0.0721623 0.0403065 0)
(-0.0881446 0.0415267 0)
(-0.102706 0.0403253 0)
(-0.115303 0.0370158 0)
(-0.125477 0.0319167 0)
(-0.132885 0.0253181 0)
(-0.137309 0.0174464 0)
(-0.138626 0.00842062 0)
(-0.136695 -0.00178373 0)
(-0.131519 -0.0131618 0)
(-0.123037 -0.0256733 0)
(-0.110675 -0.0395561 0)
(-0.0936551 -0.054493 0)
(-0.0714412 -0.0684862 0)
(-0.0449173 -0.0753792 0)
(-0.0160579 -0.0595512 0)
(-0.00779579 0.0219933 0)
(-0.0252963 0.0369097 0)
(-0.042403 0.0463468 0)
(-0.0586638 0.0525663 0)
(-0.0736864 0.0555415 0)
(-0.0871633 0.0553676 0)
(-0.0987588 0.0523142 0)
(-0.108188 0.0467641 0)
(-0.115254 0.0391422 0)
(-0.119879 0.0298544 0)
(-0.122107 0.019228 0)
(-0.122049 0.00746082 0)
(-0.119692 -0.00538181 0)
(-0.115428 -0.0192701 0)
(-0.108904 -0.0347467 0)
(-0.0995042 -0.052344 0)
(-0.0861993 -0.0719696 0)
(-0.0677629 -0.0915973 0)
(-0.0444155 -0.103991 0)
(-0.0161297 -0.0895445 0)
(-0.00714785 0.0375942 0)
(-0.0239892 0.054043 0)
(-0.0399981 0.0623699 0)
(-0.0545931 0.0672075 0)
(-0.0674673 0.0685811 0)
(-0.0784591 0.0665571 0)
(-0.0874016 0.0614395 0)
(-0.0941874 0.0536866 0)
(-0.0987981 0.0438233 0)
(-0.101331 0.0323586 0)
(-0.102008 0.0197073 0)
(-0.101105 0.00613224 0)
(-0.0987549 -0.00829602 0)
(-0.0955796 -0.0237746 0)
(-0.0911493 -0.0412033 0)
(-0.0849189 -0.0615773 0)
(-0.0756588 -0.0852981 0)
(-0.0613985 -0.11072 0)
(-0.0421096 -0.12976 0)
(-0.0149995 -0.118747 0)
(-0.00543396 0.0515607 0)
(-0.0202158 0.0697262 0)
(-0.0341636 0.0767035 0)
(-0.0465953 0.079826 0)
(-0.0572015 0.0793331 0)
(-0.0658775 0.0753209 0)
(-0.07254 0.0681421 0)
(-0.0771723 0.0583303 0)
(-0.0798439 0.0465062 0)
(-0.0807407 0.0332842 0)
(-0.0801858 0.0191836 0)
(-0.0785907 0.00454788 0)
(-0.0763195 -0.010572 0)
(-0.0741266 -0.0266432 0)
(-0.0715844 -0.0449853 0)
(-0.0683356 -0.0671289 0)
(-0.0631568 -0.0942061 0)
(-0.0531683 -0.125408 0)
(-0.0387071 -0.151981 0)
(-0.0131962 -0.146076 0)
(-0.00331978 0.0626113 0)
(-0.0153175 0.0829907 0)
(-0.0267219 0.0887637 0)
(-0.0367737 0.0901993 0)
(-0.0451385 0.087876 0)
(-0.0517332 0.0819601 0)
(-0.0565101 0.0728627 0)
(-0.0594871 0.0611909 0)
(-0.0607591 0.0476619 0)
(-0.0605293 0.033013 0)
(-0.0591433 0.0179005 0)
(-0.0570903 0.00276715 0)
(-0.0549618 -0.0123764 0)
(-0.0534166 -0.0282568 0)
(-0.0522007 -0.0465429 0)
(-0.051285 -0.0693449 0)
(-0.0499027 -0.098781 0)
(-0.0438952 -0.135486 0)
(-0.034809 -0.170209 0)
(-0.0110427 -0.170863 0)
(-0.00117059 0.0701135 0)
(-0.0100396 0.0933493 0)
(-0.018719 0.0982896 0)
(-0.0263589 0.0982797 0)
(-0.0325927 0.0943581 0)
(-0.0373568 0.0867872 0)
(-0.0406278 0.0760397 0)
(-0.042443 0.062786 0)
(-0.0428981 0.0478244 0)
(-0.0421747 0.032007 0)
(-0.0405704 0.0161302 0)
(-0.0385224 0.000748576 0)
(-0.0367347 -0.014045 0)
(-0.0354521 -0.0293152 0)
(-0.0348537 -0.0467748 0)
(-0.0352024 -0.0690521 0)
(-0.0370389 -0.0995027 0)
(-0.0343368 -0.141107 0)
(-0.030893 -0.184299 0)
(-0.00873547 -0.192806 0)
(0.000745646 0.0739282 0)
(-0.00484278 0.100651 0)
(-0.0107491 0.105239 0)
(-0.0160454 0.104125 0)
(-0.0202743 0.0989458 0)
(-0.0234076 0.0900817 0)
(-0.0254556 0.0780678 0)
(-0.0264868 0.0636237 0)
(-0.0266071 0.0476012 0)
(-0.0259732 0.0309293 0)
(-0.0247845 0.0145126 0)
(-0.0231536 -0.000999943 0)
(-0.0221259 -0.0155656 0)
(-0.0210204 -0.0303694 0)
(-0.0206741 -0.0466706 0)
(-0.0211278 -0.0673948 0)
(-0.0254462 -0.0972022 0)
(-0.0250912 -0.14272 0)
(-0.0273057 -0.19437 0)
(-0.00639686 -0.211893 0)
(0.0021948 0.0743922 0)
(-5.66139e-05 0.104767 0)
(-0.00318042 0.109698 0)
(-0.00622881 0.107852 0)
(-0.00854641 0.101786 0)
(-0.0101477 0.0920412 0)
(-0.011085 0.0792158 0)
(-0.0114786 0.0640614 0)
(-0.0114699 0.047442 0)
(-0.011218 0.0302827 0)
(-0.0108896 0.0135115 0)
(-0.010474 -0.00209539 0)
(-0.0100562 -0.0167089 0)
(-0.0093619 -0.0313472 0)
(-0.00956992 -0.0466658 0)
(-0.00947892 -0.0653279 0)
(-0.0155941 -0.0929073 0)
(-0.0165191 -0.140974 0)
(-0.0242324 -0.200733 0)
(-0.00408331 -0.228302 0)
(0.00321383 0.0722188 0)
(0.00403022 0.105666 0)
(0.00365999 0.111629 0)
(0.00282436 0.109556 0)
(0.00238038 0.102977 0)
(0.00232547 0.0927354 0)
(0.00255678 0.0795259 0)
(0.00289012 0.0641483 0)
(0.00313558 0.0474876 0)
(0.00312366 0.0304442 0)
(0.00276723 0.0137766 0)
(0.00185189 -0.00208656 0)
(0.00136786 -0.0169822 0)
(0.00113388 -0.0315037 0)
(-0.000290061 -0.0463087 0)
(-8.51301e-05 -0.0629798 0)
(-0.00753425 -0.0875549 0)
(-0.00870956 -0.136518 0)
(-0.021682 -0.203769 0)
(-0.00177903 -0.242293 0)
(0.00391316 0.0677286 0)
(0.00738554 0.103726 0)
(0.00952493 0.111093 0)
(0.0108706 0.109136 0)
(0.0123172 0.102317 0)
(0.0138849 0.0919063 0)
(0.0154097 0.0787271 0)
(0.0166448 0.0636139 0)
(0.0173594 0.0474384 0)
(0.0173835 0.031036 0)
(0.0167199 0.0150041 0)
(0.0151296 -0.000657207 0)
(0.0134142 -0.0157264 0)
(0.0115816 -0.0301709 0)
(0.00874644 -0.0446873 0)
(0.00762268 -0.0597946 0)
(-0.00103731 -0.0815056 0)
(-0.001509 -0.129764 0)
(-0.0195043 -0.203846 0)
(0.000596447 -0.254121 0)
(0.00429912 0.0614494 0)
(0.00993631 0.0993616 0)
(0.014257 0.108275 0)
(0.0177095 0.106696 0)
(0.0210743 0.0998829 0)
(0.0243502 0.0895819 0)
(0.0273001 0.0767699 0)
(0.0296183 0.0622949 0)
(0.0310438 0.0469697 0)
(0.0314103 0.031513 0)
(0.0307075 0.0163819 0)
(0.0291242 0.00154084 0)
(0.0261431 -0.01301 0)
(0.0226466 -0.0270627 0)
(0.0181284 -0.0410546 0)
(0.0146835 -0.0555477 0)
(0.00431611 -0.0757991 0)
(0.00521001 -0.120794 0)
(-0.0174694 -0.201416 0)
(0.00319897 -0.263949 0)
(0.00428702 0.0540074 0)
(0.011489 0.09308 0)
(0.01761 0.103363 0)
(0.0230919 0.102243 0)
(0.0284441 0.0956067 0)
(0.0335478 0.0856485 0)
(0.0380699 0.0734941 0)
(0.0416473 0.0599798 0)
(0.043993 0.0458279 0)
(0.0449341 0.0316265 0)
(0.0444242 0.0177309 0)
(0.0426417 0.00418897 0)
(0.0389239 -0.00919705 0)
(0.0341086 -0.0222939 0)
(0.0279896 -0.0353785 0)
(0.0220681 -0.0490954 0)
(0.00931789 -0.0686849 0)
(0.0113356 -0.110984 0)
(-0.0152572 -0.197077 0)
(0.00639831 -0.271682 0)
(0.00366183 0.0462016 0)
(0.0116826 0.0854615 0)
(0.0192194 0.0965436 0)
(0.026716 0.0957244 0)
(0.0342099 0.0893441 0)
(0.0413283 0.0799367 0)
(0.047604 0.0687182 0)
(0.0526204 0.0564756 0)
(0.0560741 0.0438213 0)
(0.0577858 0.0312233 0)
(0.0576805 0.0189737 0)
(0.0558809 0.00717439 0)
(0.0517136 -0.00455818 0)
(0.0459059 -0.0161567 0)
(0.0384128 -0.0278485 0)
(0.0301195 -0.0404328 0)
(0.0153714 -0.0594717 0)
(0.01679 -0.101583 0)
(-0.0121648 -0.190883 0)
(0.010978 -0.276857 0)
(0.00186822 0.0392509 0)
(0.00984201 0.0771411 0)
(0.0186138 0.0879412 0)
(0.0282866 0.0869918 0)
(0.0382041 0.0808779 0)
(0.0476011 0.0722422 0)
(0.0558452 0.0622609 0)
(0.0624815 0.0516152 0)
(0.0672112 0.0407904 0)
(0.0698659 0.0301415 0)
(0.0703703 0.0199009 0)
(0.0687662 0.010189 0)
(0.0648706 0.000763248 0)
(0.0583425 -0.00886211 0)
(0.0497539 -0.0187413 0)
(0.0393258 -0.029855 0)
(0.023352 -0.0484409 0)
(0.0230665 -0.0927158 0)
(-0.00665657 -0.184659 0)
(0.0178391 -0.278772 0)
(-0.00220656 0.0347353 0)
(0.00462721 0.0690388 0)
(0.0153566 0.0775726 0)
(0.0276716 0.0757485 0)
(0.0404425 0.0698937 0)
(0.0524324 0.0622985 0)
(0.0628628 0.053893 0)
(0.0712847 0.0451806 0)
(0.0774407 0.0365027 0)
(0.0812007 0.0281036 0)
(0.0825207 0.0201478 0)
(0.0814193 0.0127304 0)
(0.0779909 0.0057899 0)
(0.0716875 -0.00128568 0)
(0.0625707 -0.00905053 0)
(0.0507368 -0.0182155 0)
(0.0350737 -0.0364717 0)
(0.0336317 -0.0845257 0)
(0.00371002 -0.177148 0)
(0.0282935 -0.274903 0)
(-0.00861483 0.0397393 0)
(-0.00592542 0.0600782 0)
(0.00947098 0.0649493 0)
(0.0254083 0.0617257 0)
(0.0416275 0.0563775 0)
(0.0565496 0.0502541 0)
(0.0693995 0.0438641 0)
(0.0798252 0.0374839 0)
(0.0876637 0.0312999 0)
(0.0928669 0.0254513 0)
(0.0954649 0.0200393 0)
(0.0955367 0.0151301 0)
(0.09318 0.010743 0)
(0.0884499 0.00677348 0)
(0.0808156 0.0027608 0)
(0.069441 -0.00330042 0)
(0.0586448 -0.0243767 0)
(0.0575824 -0.0760614 0)
(0.0262068 -0.16174 0)
(0.0463019 -0.254687 0)
(-0.0150064 0.0559941 0)
(-0.0168929 0.0452253 0)
(0.00755767 0.0416101 0)
(0.0293657 0.039335 0)
(0.0500493 0.0362346 0)
(0.068756 0.0326552 0)
(0.084979 0.0290198 0)
(0.098558 0.0255101 0)
(0.109489 0.0221993 0)
(0.117864 0.0191381 0)
(0.123848 0.0163661 0)
(0.127652 0.0138999 0)
(0.12954 0.0116988 0)
(0.129874 0.00948005 0)
(0.12888 0.00583961 0)
(0.124424 -0.00405483 0)
(0.125305 -0.0262209 0)
(0.122459 -0.0652057 0)
(0.0835165 -0.126163 0)
(0.0834994 -0.200117 0)
(0.065803 0.0564244 0)
(0.0806963 0.0405555 0)
(0.117806 0.0305087 0)
(0.151169 0.0253047 0)
(0.180151 0.0219977 0)
(0.206133 0.0194737 0)
(0.229571 0.0174203 0)
(0.250576 0.0157027 0)
(0.269274 0.0142346 0)
(0.285835 0.0129623 0)
(0.300453 0.0118516 0)
(0.313318 0.0108749 0)
(0.324575 0.00999117 0)
(0.334142 0.00906072 0)
(0.341435 0.00747414 0)
(0.345153 0.00348261 0)
(0.336184 -0.00443375 0)
(0.304998 -0.019323 0)
(0.231247 -0.0491668 0)
(0.167745 -0.105235 0)
)
;

boundaryField
{
    movingWall
    {
        type            fixedValue;
        value           uniform (1 0 0);
    }
    fixedWalls
    {
        type            noSlip;
    }
    frontAndBack
    {
        type            empty;
    }
}


// ************************************************************************* //
