/*--------------------------------*- C++ -*----------------------------------*\
  =========                 |
  \\      /  F ield         | OpenFOAM: The Open Source CFD Toolbox
   \\    /   O peration     | Website:  https://openfoam.org
    \\  /    A nd           | Version:  8
     \\/     M anipulation  |
\*---------------------------------------------------------------------------*/
FoamFile
{
    version     2.0;
    format      ascii;
    class       volScalarField;
    location    "9.5";
    object      p;
}
// * * * * * * * * * * * * * * * * * * * * * * * * * * * * * * * * * * * * * //

dimensions      [0 2 -2 0 0 0 0];

internalField   nonuniform List<scalar> 
400
(
9.2192e-09
-0.000181215
-0.000387542
-0.000633424
-0.00100853
-0.00152105
-0.00215875
-0.00285702
-0.00351313
-0.00400382
-0.00419865
-0.00396684
-0.00319
-0.00179795
0.00020729
0.00270935
0.00536489
0.00754801
0.0085996
0.00843076
0.000175162
1.78174e-05
-0.00025709
-0.000580441
-0.00101628
-0.00160363
-0.00232582
-0.00311217
-0.00385465
-0.00442784
-0.00470564
-0.00456775
-0.00390719
-0.00268896
-0.000842381
0.00151296
0.00407239
0.00629415
0.00753545
0.00762795
0.000499335
0.00022096
-0.000161602
-0.0006549
-0.00129793
-0.00209788
-0.00301647
-0.00397025
-0.00484652
-0.00552384
-0.00589109
-0.00585692
-0.0053392
-0.00423326
-0.00255795
-0.000388258
0.00206298
0.00435787
0.00584481
0.00619421
0.000590086
0.000226369
-0.000323363
-0.00104204
-0.0019345
-0.00297234
-0.00409138
-0.00519724
-0.0061798
-0.00693203
-0.00736614
-0.00741296
-0.00700104
-0.0060731
-0.00462991
-0.00270379
-0.000416644
0.00190391
0.00359302
0.00418584
0.000267345
-0.000154614
-0.000842523
-0.00175197
-0.00284932
-0.00407396
-0.00534117
-0.00654945
-0.00759455
-0.00838587
-0.00885776
-0.00896261
-0.00865161
-0.00790275
-0.00671764
-0.00508554
-0.00304283
-0.000795673
0.000988047
0.00178998
-0.0004609
-0.000903883
-0.00166931
-0.00269421
-0.0039167
-0.00525108
-0.00659669
-0.00784728
-0.00890484
-0.00969314
-0.0101647
-0.0102932
-0.0100614
-0.00947977
-0.00855268
-0.00724128
-0.00551613
-0.003449
-0.00169794
-0.000740999
-0.00143854
-0.00187218
-0.0026606
-0.00372997
-0.00500119
-0.00637202
-0.00773105
-0.00896932
-0.00999432
-0.0107415
-0.0111788
-0.0113016
-0.0111233
-0.0106787
-0.00997924
-0.00897726
-0.00760913
-0.00580675
-0.00420786
-0.00315404
-0.00247355
-0.00288154
-0.00365727
-0.00471998
-0.00598286
-0.00733552
-0.00866137
-0.00985083
-0.010816
-0.0115017
-0.0118888
-0.0119902
-0.0118422
-0.0114951
-0.0109683
-0.0102225
-0.00920146
-0.00770503
-0.00634315
-0.00524749
-0.00341807
-0.00378539
-0.0045295
-0.00555378
-0.00677267
-0.00807476
-0.00934353
-0.0104708
-0.0113721
-0.0119985
-0.0123394
-0.0124137
-0.0122846
-0.0119956
-0.0115767
-0.0110064
-0.010278
-0.00907742
-0.0079883
-0.00688959
-0.00418264
-0.00449027
-0.00519087
-0.00615798
-0.0073136
-0.00855057
-0.00975706
-0.010828
-0.0116807
-0.0122675
-0.0125816
-0.0126492
-0.0125259
-0.0122531
-0.0118836
-0.0113976
-0.0108952
-0.00993426
-0.00910538
-0.00801186
-0.00471393
-0.00496749
-0.00560276
-0.00649798
-0.00757827
-0.00874582
-0.00989554
-0.0109252
-0.0117518
-0.0123242
-0.0126314
-0.0127015
-0.0125775
-0.0122946
-0.0119391
-0.0114488
-0.0111243
-0.0103176
-0.0097014
-0.00858698
-0.00500806
-0.00521565
-0.00577323
-0.00658282
-0.00757826
-0.00867407
-0.00977196
-0.0107714
-0.0115869
-0.0121621
-0.0124767
-0.0125523
-0.0124204
-0.0121257
-0.0117365
-0.0112351
-0.0109767
-0.0102468
-0.00981155
-0.00860642
-0.00510503
-0.00526386
-0.00572706
-0.00643461
-0.00733627
-0.00835868
-0.00940849
-0.0103849
-0.0111981
-0.011785
-0.0121155
-0.0121911
-0.012051
-0.0117406
-0.0113111
-0.0107796
-0.0104847
-0.00972255
-0.00952975
-0.00804435
-0.00506117
-0.00515988
-0.00549773
-0.00607627
-0.00687147
-0.00781993
-0.00882859
-0.00979219
-0.010614
-0.0112214
-0.0115735
-0.0116585
-0.0115146
-0.0111842
-0.0107091
-0.0101303
-0.00974609
-0.00875632
-0.00896712
-0.00678551
-0.00493601
-0.00495232
-0.00511809
-0.00553162
-0.0062065
-0.00708495
-0.00806601
-0.00903381
-0.00988081
-0.0105237
-0.0109105
-0.0110187
-0.0108796
-0.0105273
-0.0100015
-0.00935848
-0.00882997
-0.00759894
-0.00794514
-0.00462754
-0.00479014
-0.00466868
-0.00460702
-0.00482194
-0.00537091
-0.00619345
-0.0071694
-0.00816506
-0.00905895
-0.00975629
-0.0101952
-0.0103454
-0.0102169
-0.00984988
-0.0092826
-0.00856772
-0.00783259
-0.00633553
-0.00621441
-0.0013483
-0.00469276
-0.00428322
-0.00396054
-0.00396318
-0.00440232
-0.00519982
-0.00620337
-0.00725616
-0.0082216
-0.00899408
-0.00950351
-0.00971368
-0.00961914
-0.00925678
-0.00866523
-0.00786965
-0.00683636
-0.00479398
-0.00312718
0.00476269
-0.00465237
-0.00381482
-0.00317894
-0.00298042
-0.00335402
-0.00417204
-0.00523995
-0.00637776
-0.00743573
-0.00829991
-0.00889432
-0.00917827
-0.00914016
-0.00878846
-0.00814583
-0.00723387
-0.00577213
-0.00232991
0.00327044
0.0182152
-0.0051358
-0.00333659
-0.00235439
-0.00202669
-0.00240683
-0.00329506
-0.00445972
-0.00570205
-0.00686212
-0.00782184
-0.00850384
-0.00886707
-0.00890133
-0.00862478
-0.00809011
-0.00724971
-0.00453732
0.0024232
0.0155746
0.0420618
-0.00823501
-0.00207667
-0.000448251
-0.000495536
-0.00114823
-0.00221397
-0.00354254
-0.00493855
-0.00623367
-0.00730924
-0.00808978
-0.00853382
-0.00862077
-0.00830361
-0.00730734
-0.00469098
0.000846708
0.0122917
0.0324451
0.0659088
)
;

boundaryField
{
    movingWall
    {
        type            zeroGradient;
    }
    fixedWalls
    {
        type            zeroGradient;
    }
    frontAndBack
    {
        type            empty;
    }
}


// ************************************************************************* //
