/*--------------------------------*- C++ -*----------------------------------*\
  =========                 |
  \\      /  F ield         | OpenFOAM: The Open Source CFD Toolbox
   \\    /   O peration     | Website:  https://openfoam.org
    \\  /    A nd           | Version:  8
     \\/     M anipulation  |
\*---------------------------------------------------------------------------*/
FoamFile
{
    version     2.0;
    format      ascii;
    class       surfaceScalarField;
    location    "9.5";
    object      phi;
}
// * * * * * * * * * * * * * * * * * * * * * * * * * * * * * * * * * * * * * //

dimensions      [0 3 -1 0 0 0 0];

internalField   nonuniform List<scalar> 
760
(
2.50499e-07
-2.505e-07
2.50964e-07
-4.65065e-10
-3.83668e-08
2.89331e-07
-5.92859e-07
5.54492e-07
-1.30761e-06
7.14748e-07
-2.10803e-06
8.00425e-07
-2.93226e-06
8.24226e-07
-3.72888e-06
7.96624e-07
-4.45547e-06
7.26587e-07
-5.07669e-06
6.21217e-07
-5.56215e-06
4.85467e-07
-5.88271e-06
3.2056e-07
-6.00553e-06
1.22813e-07
-5.89145e-06
-1.14079e-07
-5.496e-06
-3.95444e-07
-4.77985e-06
-7.16157e-07
-3.72389e-06
-1.05596e-06
-2.36624e-06
-1.35765e-06
-9.16191e-07
-1.45005e-06
-9.16191e-07
-2.64053e-07
1.35529e-08
-8.2818e-07
5.63662e-07
-1.58582e-06
1.04697e-06
-2.41617e-06
1.38485e-06
-3.29166e-06
1.59023e-06
-4.16744e-06
1.67621e-06
-4.99874e-06
1.65553e-06
-5.7455e-06
1.54339e-06
-6.37303e-06
1.35411e-06
-6.85187e-06
1.10006e-06
-7.15707e-06
7.90667e-07
-7.26714e-06
4.30629e-07
-7.14459e-06
2.65417e-10
-6.80423e-06
-4.54445e-07
-6.22214e-06
-9.77532e-07
-5.38174e-06
-1.55655e-06
-4.26224e-06
-2.17547e-06
-2.87405e-06
-2.74583e-06
-1.32716e-06
-2.99694e-06
-2.24335e-06
-6.7736e-07
6.90913e-07
-1.50823e-06
1.39453e-06
-2.35162e-06
1.89035e-06
-3.19404e-06
2.22727e-06
-4.0104e-06
2.40659e-06
-4.7714e-06
2.4372e-06
-5.44906e-06
2.33318e-06
-6.0182e-06
2.11253e-06
-6.45852e-06
1.79443e-06
-6.75534e-06
1.39688e-06
-6.89881e-06
9.34138e-07
-6.88084e-06
4.12658e-07
-6.71264e-06
-1.67938e-07
-6.37466e-06
-7.92425e-07
-5.86268e-06
-1.48951e-06
-5.14319e-06
-2.27604e-06
-4.17709e-06
-3.14157e-06
-2.9381e-06
-3.98483e-06
-1.46553e-06
-4.4695e-06
-3.70888e-06
-8.05528e-07
1.49644e-06
-1.69293e-06
2.28193e-06
-2.53115e-06
2.72857e-06
-3.31119e-06
3.00731e-06
-4.02182e-06
3.11723e-06
-4.64723e-06
3.06261e-06
-5.17225e-06
2.8582e-06
-5.58501e-06
2.52529e-06
-5.87847e-06
2.08789e-06
-6.05069e-06
1.5691e-06
-6.10405e-06
9.87495e-07
-6.04436e-06
3.52969e-07
-5.88379e-06
-3.28512e-07
-5.61588e-06
-1.06033e-06
-5.22348e-06
-1.88191e-06
-4.66884e-06
-2.83067e-06
-3.89555e-06
-3.91486e-06
-2.83834e-06
-5.04204e-06
-1.47962e-06
-5.82822e-06
-5.1885e-06
-7.6107e-07
2.25751e-06
-1.59701e-06
3.11787e-06
-2.36514e-06
3.4967e-06
-3.05091e-06
3.69309e-06
-3.64674e-06
3.71306e-06
-4.14455e-06
3.56042e-06
-4.53788e-06
3.25153e-06
-4.82378e-06
2.81119e-06
-5.00402e-06
2.26813e-06
-5.08533e-06
1.65041e-06
-5.07897e-06
9.81134e-07
-5.0002e-06
2.74202e-07
-4.86439e-06
-4.6433e-07
-4.67248e-06
-1.25224e-06
-4.40889e-06
-2.1455e-06
-4.03242e-06
-3.20714e-06
-3.47098e-06
-4.4763e-06
-2.6213e-06
-5.89172e-06
-1.41771e-06
-7.03181e-06
-6.60621e-06
-6.28776e-07
2.88629e-06
-1.35502e-06
3.84412e-06
-2.0165e-06
4.15818e-06
-2.59183e-06
4.26842e-06
-3.07366e-06
4.19489e-06
-3.45723e-06
3.94399e-06
-3.74038e-06
3.53468e-06
-3.92461e-06
2.99542e-06
-4.01605e-06
2.35957e-06
-4.02637e-06
1.66074e-06
-3.97327e-06
9.28039e-07
-3.88046e-06
1.81384e-07
-3.768e-06
-5.76789e-07
-3.64458e-06
-1.37566e-06
-3.50007e-06
-2.29001e-06
-3.29622e-06
-3.411e-06
-2.95134e-06
-4.82118e-06
-2.32588e-06
-6.51718e-06
-1.30934e-06
-8.04834e-06
-7.91556e-06
-4.58068e-07
3.34435e-06
-1.04554e-06
4.43159e-06
-1.58308e-06
4.69572e-06
-2.04276e-06
4.7281e-06
-2.41675e-06
4.56888e-06
-2.70155e-06
4.22878e-06
-2.89671e-06
3.72985e-06
-3.00519e-06
3.1039e-06
-3.03424e-06
2.38862e-06
-2.99699e-06
1.62348e-06
-2.91379e-06
8.44831e-07
-2.8136e-06
8.1196e-08
-2.71789e-06
-6.72497e-07
-2.64116e-06
-1.45239e-06
-2.58602e-06
-2.34515e-06
-2.52801e-06
-3.469e-06
-2.38712e-06
-4.96207e-06
-1.9879e-06
-6.9164e-06
-1.17422e-06
-8.86203e-06
-9.08977e-06
-2.76138e-07
3.62049e-06
-7.12858e-07
4.86831e-06
-1.12152e-06
5.10438e-06
-1.46729e-06
5.07387e-06
-1.74218e-06
4.84377e-06
-1.94368e-06
4.43029e-06
-2.07247e-06
3.85864e-06
-2.13204e-06
3.16347e-06
-2.12921e-06
2.38579e-06
-2.07571e-06
1.56998e-06
-1.98941e-06
7.58537e-07
-1.89761e-06
-1.06114e-08
-1.81475e-06
-7.55352e-07
-1.75872e-06
-1.50842e-06
-1.75038e-06
-2.3535e-06
-1.79312e-06
-3.42626e-06
-1.82545e-06
-4.92974e-06
-1.63903e-06
-7.10282e-06
-1.03019e-06
-9.47087e-06
-1.012e-05
-1.02904e-07
3.7234e-06
-3.82505e-07
5.14791e-06
-6.63995e-07
5.38587e-06
-9.00532e-07
5.31041e-06
-1.08428e-06
5.02751e-06
-1.21426e-06
4.56027e-06
-1.29287e-06
3.93726e-06
-1.32483e-06
3.19542e-06
-1.31664e-06
2.3776e-06
-1.2765e-06
1.52984e-06
-1.21634e-06
6.98381e-07
-1.14772e-06
-7.92376e-08
-1.09023e-06
-8.12835e-07
-1.04463e-06
-1.55403e-06
-1.0488e-06
-2.34932e-06
-1.14147e-06
-3.33359e-06
-1.30317e-06
-4.76804e-06
-1.30361e-06
-7.10238e-06
-8.90021e-07
-9.88446e-06
-1.101e-05
4.87821e-08
3.67461e-06
-7.41354e-08
5.27083e-06
-2.29757e-07
5.54149e-06
-3.61749e-07
5.4424e-06
-4.59083e-07
5.12484e-06
-5.22562e-07
4.62375e-06
-5.57062e-07
3.97176e-06
-5.6956e-07
3.20792e-06
-5.68175e-07
2.37622e-06
-5.60502e-07
1.52217e-06
-5.49085e-07
6.86964e-07
-5.26636e-07
-1.01687e-07
-4.98693e-07
-8.40778e-07
-4.73881e-07
-1.57884e-06
-4.90928e-07
-2.33227e-06
-5.9655e-07
-3.22797e-06
-8.41882e-07
-4.52271e-06
-9.97775e-07
-6.94648e-06
-7.61122e-07
-1.01211e-05
-1.17711e-05
1.72404e-07
3.50221e-06
2.01317e-07
5.24191e-06
1.67863e-07
5.57495e-06
1.3696e-07
5.4733e-06
1.24848e-07
5.13696e-06
1.29412e-07
4.61918e-06
1.42942e-07
3.95823e-06
1.55689e-07
3.19518e-06
1.57883e-07
2.37402e-06
1.41939e-07
1.53812e-06
1.08307e-07
7.20596e-07
7.43747e-08
-6.77541e-08
5.45951e-08
-8.20998e-07
2.3228e-08
-1.54747e-06
-1.86471e-08
-2.2904e-06
-1.62957e-07
-3.08366e-06
-4.44501e-07
-4.24116e-06
-7.25638e-07
-6.66535e-06
-6.44666e-07
-1.02021e-05
-1.24158e-05
2.7217e-07
3.23004e-06
4.31824e-07
5.08226e-06
5.16439e-07
5.49033e-06
5.87919e-07
5.40182e-06
6.64735e-07
5.06014e-06
7.42959e-07
4.54096e-06
8.11568e-07
3.88962e-06
8.58391e-07
3.14835e-06
8.73152e-07
2.35926e-06
8.50134e-07
1.56113e-06
7.90465e-07
7.80265e-07
7.04414e-07
1.82972e-08
6.1424e-07
-7.30824e-07
5.11823e-07
-1.44506e-06
3.8082e-07
-2.15939e-06
1.98043e-07
-2.90088e-06
-8.7484e-08
-3.95564e-06
-4.79371e-07
-6.27346e-06
-5.37346e-07
-1.01441e-05
-1.29531e-05
3.44879e-07
2.88516e-06
6.1185e-07
4.81529e-06
8.05398e-07
5.29678e-06
9.77966e-07
5.22925e-06
1.14609e-06
4.89202e-06
1.3031e-06
4.38395e-06
1.43476e-06
3.75796e-06
1.52678e-06
3.05633e-06
1.56869e-06
2.31736e-06
1.55642e-06
1.5734e-06
1.49216e-06
8.44523e-07
1.37564e-06
1.34822e-07
1.21387e-06
-5.69057e-07
1.01926e-06
-1.25044e-06
7.88812e-07
-1.92895e-06
5.23391e-07
-2.63546e-06
1.99223e-07
-3.63147e-06
-2.49515e-07
-5.82472e-06
-4.35037e-07
-9.95859e-06
-1.33882e-05
3.83278e-07
2.50188e-06
7.298e-07
4.46877e-06
1.02255e-06
5.00404e-06
1.29708e-06
4.95472e-06
1.56146e-06
4.62764e-06
1.80388e-06
4.14153e-06
2.00657e-06
3.55527e-06
2.15338e-06
2.90952e-06
2.23322e-06
2.23752e-06
2.24117e-06
1.56544e-06
2.17637e-06
9.09326e-07
2.03699e-06
2.74202e-07
1.8239e-06
-3.55968e-07
1.55077e-06
-9.77307e-07
1.22214e-06
-1.60032e-06
8.47188e-07
-2.26051e-06
4.41404e-07
-3.22568e-06
-5.27652e-08
-5.33055e-06
-3.21147e-07
-9.69021e-06
-1.37093e-05
3.72578e-07
2.12931e-06
7.66585e-07
4.07476e-06
1.15096e-06
4.61966e-06
1.53253e-06
4.57315e-06
1.90207e-06
4.2581e-06
2.23896e-06
3.80464e-06
2.52148e-06
3.27275e-06
2.73203e-06
2.69897e-06
2.85904e-06
2.11051e-06
2.89675e-06
1.52774e-06
2.84235e-06
9.63718e-07
2.69199e-06
4.24567e-07
2.44103e-06
-1.05007e-07
2.10597e-06
-6.42255e-07
1.69047e-06
-1.18481e-06
1.20905e-06
-1.77909e-06
7.00247e-07
-2.71688e-06
2.18771e-07
-4.84908e-06
-1.15641e-07
-9.35579e-06
-1.38249e-05
2.78654e-07
1.85065e-06
6.95876e-07
3.65754e-06
1.17172e-06
4.14382e-06
1.67307e-06
4.0718e-06
2.16176e-06
3.76941e-06
2.60474e-06
3.36166e-06
2.9766e-06
2.90089e-06
3.25931e-06
2.41625e-06
3.44172e-06
1.9281e-06
3.51822e-06
1.45124e-06
3.48646e-06
9.95482e-07
3.34465e-06
5.66379e-07
3.08304e-06
1.56604e-07
2.70248e-06
-2.617e-07
2.21656e-06
-6.98893e-07
1.64102e-06
-1.20355e-06
1.04543e-06
-2.12129e-06
5.77293e-07
-4.38094e-06
1.6066e-07
-8.93916e-06
-1.36643e-05
4.69363e-08
1.80371e-06
4.82748e-07
3.22173e-06
1.06987e-06
3.55669e-06
1.71655e-06
3.42512e-06
2.3429e-06
3.14307e-06
2.90448e-06
2.80008e-06
3.37478e-06
2.43058e-06
3.73731e-06
2.05373e-06
3.98276e-06
1.68265e-06
4.10717e-06
1.32684e-06
4.10984e-06
9.92809e-07
3.99173e-06
6.84489e-07
3.74709e-06
4.01247e-07
3.3619e-06
1.23487e-07
2.84481e-06
-1.81807e-07
2.22761e-06
-5.86349e-07
1.62165e-06
-1.51533e-06
1.15759e-06
-3.91688e-06
5.51799e-07
-8.33337e-06
-1.31125e-05
-4.21724e-07
2.22544e-06
7.97741e-08
2.72023e-06
8.6281e-07
2.77366e-06
1.69609e-06
2.59184e-06
2.48125e-06
2.35791e-06
3.17445e-06
2.10687e-06
3.75404e-06
1.85099e-06
4.20802e-06
1.59974e-06
4.53128e-06
1.35939e-06
4.72361e-06
1.13451e-06
4.78787e-06
9.28545e-07
4.72865e-06
7.43704e-07
4.54948e-06
5.80423e-07
4.23919e-06
4.33775e-07
3.79698e-06
2.60406e-07
3.33471e-06
-1.24079e-07
2.92065e-06
-1.10127e-06
2.38385e-06
-3.38008e-06
1.32546e-06
-7.27499e-06
-1.1787e-05
-9.37246e-07
3.16269e-06
-2.17064e-07
2.00004e-06
9.21116e-07
1.63548e-06
2.01468e-06
1.49827e-06
3.0014e-06
1.37119e-06
3.87063e-06
1.23764e-06
4.61188e-06
1.10975e-06
5.22111e-06
9.90514e-07
5.70063e-06
8.79874e-07
6.05687e-06
7.78269e-07
6.29911e-06
6.86312e-07
6.43891e-06
6.03899e-07
6.49115e-06
5.2818e-07
6.4815e-06
4.43425e-07
6.4555e-06
2.86413e-07
6.40779e-06
-7.63723e-08
6.31135e-06
-1.00484e-06
5.46813e-06
-2.53686e-06
3.24497e-06
-5.05182e-06
-8.54206e-06
3.16269e-06
5.16273e-06
6.79821e-06
8.29648e-06
9.66767e-06
1.09053e-05
1.20151e-05
1.30056e-05
1.38854e-05
1.46637e-05
1.535e-05
1.59539e-05
1.64821e-05
1.69255e-05
1.72119e-05
1.71356e-05
1.61307e-05
1.35939e-05
8.54206e-06
)
;

boundaryField
{
    movingWall
    {
        type            calculated;
        value           uniform 0;
    }
    fixedWalls
    {
        type            calculated;
        value           uniform 0;
    }
    frontAndBack
    {
        type            empty;
        value           nonuniform List<scalar> 0();
    }
}


// ************************************************************************* //
