/*--------------------------------*- C++ -*----------------------------------*\
  =========                 |
  \\      /  F ield         | OpenFOAM: The Open Source CFD Toolbox
   \\    /   O peration     | Website:  https://openfoam.org
    \\  /    A nd           | Version:  8
     \\/     M anipulation  |
\*---------------------------------------------------------------------------*/
FoamFile
{
    version     2.0;
    format      ascii;
    class       volVectorField;
    location    "9.5";
    object      U;
}
// * * * * * * * * * * * * * * * * * * * * * * * * * * * * * * * * * * * * * //

dimensions      [0 1 -1 0 0 0 0];

internalField   nonuniform List<vector> 
400
(
(0.00307263 -0.00403011 0)
(0.00621235 -0.00370987 0)
(0.00398289 -0.00101561 0)
(-0.00528065 0.00334026 0)
(-0.0183657 0.00617978 0)
(-0.0340544 0.00791174 0)
(-0.0506785 0.00875901 0)
(-0.0671468 0.00891343 0)
(-0.0825603 0.00853762 0)
(-0.0961775 0.00774786 0)
(-0.107368 0.00661226 0)
(-0.115528 0.0051366 0)
(-0.120018 0.00324675 0)
(-0.120196 0.000778369 0)
(-0.115067 -0.00254095 0)
(-0.103591 -0.00647847 0)
(-0.0853518 -0.0107077 0)
(-0.0609625 -0.0143891 0)
(-0.0330474 -0.0151248 0)
(-0.00764084 -0.00715696 0)
(-0.00070738 -0.00576107 0)
(-0.0101739 0.0037859 0)
(-0.0235089 0.0133488 0)
(-0.0395074 0.0197467 0)
(-0.0569404 0.0235425 0)
(-0.0748126 0.0253202 0)
(-0.0921637 0.0253828 0)
(-0.108158 0.0239945 0)
(-0.122056 0.0213871 0)
(-0.133238 0.0177548 0)
(-0.141183 0.0132389 0)
(-0.14541 0.00789137 0)
(-0.145388 0.00162041 0)
(-0.140609 -0.0058233 0)
(-0.131202 -0.014216 0)
(-0.116766 -0.0234927 0)
(-0.0968252 -0.0332456 0)
(-0.0715329 -0.0418901 0)
(-0.042663 -0.0447803 0)
(-0.0138288 -0.0305511 0)
(-0.00623326 0.00661578 0)
(-0.0218791 0.0198076 0)
(-0.0384242 0.0296331 0)
(-0.0554622 0.0364603 0)
(-0.0722816 0.0403656 0)
(-0.0882772 0.0415747 0)
(-0.102848 0.0403603 0)
(-0.115449 0.0370373 0)
(-0.125624 0.0319251 0)
(-0.133029 0.0253144 0)
(-0.137447 0.0174316 0)
(-0.138755 0.00839586 0)
(-0.136812 -0.00181723 0)
(-0.131626 -0.0132011 0)
(-0.12313 -0.0257173 0)
(-0.110752 -0.0396034 0)
(-0.0937146 -0.0545419 0)
(-0.0714837 -0.0685352 0)
(-0.044943 -0.0754264 0)
(-0.0160686 -0.0595911 0)
(-0.00781937 0.0220585 0)
(-0.025348 0.0369936 0)
(-0.0424799 0.0464345 0)
(-0.0587601 0.0526499 0)
(-0.0737974 0.0556144 0)
(-0.0872848 0.0554254 0)
(-0.0988871 0.0523551 0)
(-0.10832 0.0467878 0)
(-0.115387 0.0391496 0)
(-0.12001 0.0298469 0)
(-0.122234 0.0192073 0)
(-0.122171 0.00742848 0)
(-0.119805 -0.00542425 0)
(-0.11553 -0.0193213 0)
(-0.108991 -0.0348052 0)
(-0.0995759 -0.052407 0)
(-0.0862547 -0.0720345 0)
(-0.0678023 -0.0916622 0)
(-0.0444396 -0.104054 0)
(-0.0161393 -0.0896012 0)
(-0.00716704 0.0376914 0)
(-0.0240341 0.0541542 0)
(-0.0400663 0.062479 0)
(-0.054679 0.0673073 0)
(-0.0675663 0.0686658 0)
(-0.0785676 0.0666231 0)
(-0.0875167 0.0614854 0)
(-0.0943069 0.0537129 0)
(-0.0989203 0.0438313 0)
(-0.101454 0.0323499 0)
(-0.102132 0.0196834 0)
(-0.101226 0.00609423 0)
(-0.0988693 -0.00834727 0)
(-0.0956827 -0.0238384 0)
(-0.0912366 -0.0412772 0)
(-0.0849883 -0.0616569 0)
(-0.0757108 -0.085379 0)
(-0.0614346 -0.110799 0)
(-0.0421318 -0.129839 0)
(-0.0150079 -0.118819 0)
(-0.0054489 0.0516858 0)
(-0.0202532 0.0698621 0)
(-0.0342216 0.076832 0)
(-0.0466692 0.0799407 0)
(-0.0572877 0.0794288 0)
(-0.0659731 0.075395 0)
(-0.072643 0.0681942 0)
(-0.0772818 0.0583614 0)
(-0.0799595 0.046518 0)
(-0.0808622 0.0332784 0)
(-0.0803123 0.0191604 0)
(-0.078719 0.00450683 0)
(-0.0764438 -0.0106317 0)
(-0.0742381 -0.0267216 0)
(-0.0716765 -0.0450781 0)
(-0.0684058 -0.0672281 0)
(-0.0632067 -0.0943044 0)
(-0.0532012 -0.125502 0)
(-0.0387274 -0.152074 0)
(-0.0132034 -0.146162 0)
(-0.00333054 0.0627588 0)
(-0.0153472 0.0831478 0)
(-0.0267693 0.0889094 0)
(-0.036835 0.0903276 0)
(-0.0452112 0.0879826 0)
(-0.0518154 0.0820431 0)
(-0.0566008 0.0729227 0)
(-0.0595865 0.0612296 0)
(-0.0608681 0.0476814 0)
(-0.0606493 0.0330142 0)
(-0.0592744 0.0178818 0)
(-0.0572288 0.0027246 0)
(-0.0550993 -0.0124452 0)
(-0.0535396 -0.0283534 0)
(-0.0523007 -0.0466601 0)
(-0.0513583 -0.0694688 0)
(-0.0499513 -0.0988998 0)
(-0.0439248 -0.135596 0)
(-0.0348271 -0.170314 0)
(-0.0110488 -0.170962 0)
(-0.00117705 0.0702776 0)
(-0.0100613 0.0935238 0)
(-0.018755 0.0984498 0)
(-0.0264067 0.09842 0)
(-0.0326506 0.0944749 0)
(-0.0374238 0.0868795 0)
(-0.0407039 0.076109 0)
(-0.0425288 0.0628348 0)
(-0.0429954 0.0478556 0)
(-0.0422858 0.0320212 0)
(-0.0406957 0.0161243 0)
(-0.0386548 0.000714708 0)
(-0.0368747 -0.0141184 0)
(-0.0355793 -0.0294308 0)
(-0.0349579 -0.0469205 0)
(-0.0352782 -0.0692058 0)
(-0.0370862 -0.0996462 0)
(-0.0343623 -0.141232 0)
(-0.0309085 -0.184415 0)
(-0.00874043 -0.192916 0)
(0.000743748 0.0741026 0)
(-0.00485581 0.100838 0)
(-0.0107729 0.10541 0)
(-0.0160782 0.104275 0)
(-0.0203156 0.0990718 0)
(-0.0234569 0.090183 0)
(-0.0255133 0.0781466 0)
(-0.0265539 0.0636834 0)
(-0.0266856 0.047645 0)
(-0.0260657 0.0309575 0)
(-0.0248926 0.0145205 0)
(-0.0232769 -0.00102454 0)
(-0.0222479 -0.015642 0)
(-0.021134 -0.0304999 0)
(-0.0207693 -0.0468423 0)
(-0.0212006 -0.0675786 0)
(-0.0254902 -0.0973732 0)
(-0.0251107 -0.142861 0)
(-0.0273175 -0.194496 0)
(-0.00640065 -0.212012 0)
(0.00219745 0.0745699 0)
(-6.02851e-05 0.104964 0)
(-0.0031905 0.109878 0)
(-0.00624494 0.10801 0)
(-0.00856856 0.101919 0)
(-0.010176 0.0921501 0)
(-0.01112 0.0793028 0)
(-0.0115212 0.0641305 0)
(-0.0115215 0.047497 0)
(-0.0112801 0.0303237 0)
(-0.0109616 0.0135305 0)
(-0.0105527 -0.00211741 0)
(-0.0101339 -0.016787 0)
(-0.00943914 -0.0314838 0)
(-0.00963768 -0.0468533 0)
(-0.00953853 -0.0655351 0)
(-0.0156311 -0.0931053 0)
(-0.0165306 -0.14113 0)
(-0.0242392 -0.200866 0)
(-0.00408581 -0.228428 0)
(0.00322043 0.0723939 0)
(0.0040362 0.105866 0)
(0.00366483 0.111813 0)
(0.00282674 0.109719 0)
(0.00237973 0.103116 0)
(0.0023212 0.0928501 0)
(0.0025482 0.0796196 0)
(0.00287669 0.0642251 0)
(0.00311691 0.0475511 0)
(0.00309978 0.0304939 0)
(0.00274147 0.0138027 0)
(0.00182748 -0.002103 0)
(0.00134339 -0.0170564 0)
(0.00110488 -0.0316362 0)
(-0.000318491 -0.0465001 0)
(-0.00011979 -0.0631995 0)
(-0.00755945 -0.0877747 0)
(-0.00871092 -0.136686 0)
(-0.0216823 -0.203905 0)
(-0.00178012 -0.242422 0)
(0.00392333 0.0678947 0)
(0.00740119 0.103923 0)
(0.00954531 0.111278 0)
(0.0108927 0.1093 0)
(0.0123399 0.102458 0)
(0.0139071 0.0920239 0)
(0.0154305 0.0788242 0)
(0.0166638 0.0636941 0)
(0.017377 0.0475042 0)
(0.0174009 0.0310857 0)
(0.0167408 0.0150277 0)
(0.0151497 -0.000677618 0)
(0.0134394 -0.0157991 0)
(0.0116015 -0.0302965 0)
(0.00875783 -0.0448621 0)
(0.00762079 -0.0600118 0)
(-0.00104404 -0.0817388 0)
(-0.00149902 -0.129941 0)
(-0.0194967 -0.203981 0)
(0.000596706 -0.254247 0)
(0.0043126 0.0616002 0)
(0.00996154 0.0995492 0)
(0.0142931 0.108455 0)
(0.0177522 0.106856 0)
(0.0211214 0.100022 0)
(0.0244002 0.0896989 0)
(0.0273521 0.076867 0)
(0.0296718 0.0623749 0)
(0.0310994 0.0470339 0)
(0.0314693 0.0315587 0)
(0.0307722 0.0164007 0)
(0.0291949 0.00152032 0)
(0.0262135 -0.0130776 0)
(0.0227088 -0.0271792 0)
(0.0181783 -0.0412181 0)
(0.0147142 -0.0557521 0)
(0.004333 -0.07603 0)
(0.00523175 -0.120972 0)
(-0.0174535 -0.201546 0)
(0.00320028 -0.26407 0)
(0.00430345 0.0541367 0)
(0.0115234 0.0932513 0)
(0.0176612 0.103532 0)
(0.0231547 0.102396 0)
(0.0285157 0.0957401 0)
(0.0336263 0.0857615 0)
(0.0381538 0.073588 0)
(0.041736 0.0600565 0)
(0.0440866 0.0458877 0)
(0.0450333 0.0316663 0)
(0.0445292 0.0177441 0)
(0.0427511 0.0041669 0)
(0.0390316 -0.00925986 0)
(0.0342073 -0.022399 0)
(0.0280737 -0.0355254 0)
(0.0221278 -0.0492816 0)
(0.00936073 -0.0689005 0)
(0.0113658 -0.111159 0)
(-0.0152345 -0.197199 0)
(0.00640096 -0.271791 0)
(0.00368061 0.0463037 0)
(0.0117253 0.0856105 0)
(0.0192842 0.0966958 0)
(0.0267975 0.0958651 0)
(0.034305 0.0894677 0)
(0.0414343 0.0800419 0)
(0.0477193 0.0688055 0)
(0.0527437 0.0565461 0)
(0.0562046 0.0438747 0)
(0.0579231 0.031257 0)
(0.0578232 0.0189826 0)
(0.0560259 0.00715279 0)
(0.051855 -0.00461356 0)
(0.0460368 -0.0162477 0)
(0.0385266 -0.0279758 0)
(0.0302053 -0.0405964 0)
(0.0154423 -0.0596637 0)
(0.0168222 -0.101751 0)
(-0.0121368 -0.190987 0)
(0.010984 -0.276947 0)
(0.00188853 0.0393207 0)
(0.00989157 0.0772623 0)
(0.0186892 0.0880714 0)
(0.0283838 0.0871148 0)
(0.0383198 0.080987 0)
(0.0477325 0.0723353 0)
(0.0559898 0.0623381 0)
(0.0626372 0.0516768 0)
(0.0673765 0.0408359 0)
(0.0700389 0.0301689 0)
(0.0705482 0.019907 0)
(0.0689453 0.0101705 0)
(0.0650387 0.00071483 0)
(0.0584996 -0.00893894 0)
(0.0498924 -0.0188474 0)
(0.0394354 -0.0299916 0)
(0.0234447 -0.0486028 0)
(0.0231065 -0.09286 0)
(-0.00662336 -0.184751 0)
(0.0178484 -0.278841 0)
(-0.00218755 0.034772 0)
(0.00468174 0.0691271 0)
(0.0154377 0.0776757 0)
(0.0277794 0.0758484 0)
(0.0405744 0.0699832 0)
(0.052585 0.0623752 0)
(0.0630328 0.0539563 0)
(0.0714693 0.0452305 0)
(0.077637 0.0365386 0)
(0.0814058 0.0281244 0)
(0.0827309 0.0201515 0)
(0.0816297 0.0127159 0)
(0.0781959 0.0057553 0)
(0.0718713 -0.001346 0)
(0.0627344 -0.00912956 0)
(0.0508714 -0.0183159 0)
(0.0351846 -0.0365976 0)
(0.0336843 -0.0846341 0)
(0.0037443 -0.177212 0)
(0.0283031 -0.274953 0)
(-0.00860554 0.0397368 0)
(-0.0058752 0.0601358 0)
(0.00955103 0.0650212 0)
(0.0255195 0.0617968 0)
(0.0417685 0.056442 0)
(0.0567163 0.0503097 0)
(0.0695876 0.0439098 0)
(0.0800305 0.0375192 0)
(0.0878825 0.0313245 0)
(0.093095 0.0254646 0)
(0.0956976 0.0200406 0)
(0.0957681 0.0151188 0)
(0.0934039 0.0107191 0)
(0.0886605 0.00673647 0)
(0.0809956 0.00270306 0)
(0.0695987 -0.00339276 0)
(0.0587655 -0.0244778 0)
(0.0576426 -0.0761306 0)
(0.0262397 -0.161777 0)
(0.0463111 -0.254716 0)
(-0.0150094 0.0559812 0)
(-0.0168753 0.04525 0)
(0.00762869 0.0416511 0)
(0.0294621 0.0393767 0)
(0.0501785 0.0362731 0)
(0.0689131 0.0326887 0)
(0.0851586 0.0290474 0)
(0.098755 0.0255312 0)
(0.109698 0.0222139 0)
(0.118081 0.0191462 0)
(0.124067 0.0163677 0)
(0.127867 0.0138952 0)
(0.129746 0.011688 0)
(0.130063 0.00946284 0)
(0.129043 0.0058126 0)
(0.124574 -0.00408947 0)
(0.125409 -0.0262531 0)
(0.122514 -0.065229 0)
(0.0835427 -0.126177 0)
(0.083507 -0.200129 0)
(0.0657952 0.0564075 0)
(0.0806782 0.0405432 0)
(0.117802 0.0305016 0)
(0.151181 0.0253025 0)
(0.180183 0.0219984 0)
(0.206185 0.0194756 0)
(0.229639 0.0174226 0)
(0.250658 0.0157047 0)
(0.269367 0.014236 0)
(0.285935 0.0129629 0)
(0.300555 0.0118514 0)
(0.31342 0.010874 0)
(0.324674 0.00998953 0)
(0.334233 0.00905798 0)
(0.341517 0.0074693 0)
(0.345211 0.00347854 0)
(0.336217 -0.00443861 0)
(0.305014 -0.0193282 0)
(0.231254 -0.0491708 0)
(0.167748 -0.105239 0)
)
;

boundaryField
{
    movingWall
    {
        type            fixedValue;
        value           uniform (1 0 0);
    }
    fixedWalls
    {
        type            noSlip;
    }
    frontAndBack
    {
        type            empty;
    }
}


// ************************************************************************* //
